LAMMPS (31 Mar 2017)
  using 1 OpenMP thread(s) per MPI task
Reading restart file ...
  restart file = 31 Mar 2017, LAMMPS = 31 Mar 2017
  orthogonal box = (0 0 0) to (81.6 70.667 100)
  4 by 3 by 1 MPI processor grid
  9648 atoms
  8192 bonds
  14848 angles
  15360 dihedrals
Finding 1-2 1-3 1-4 neighbors ...
  special bond factors lj:   0          0          0.5       
  special bond factors coul: 0          0          0.5       
  4 = max # of 1-2 neighbors
  6 = max # of 1-3 neighbors
  12 = max # of 1-4 neighbors
  14 = max # of special neighbors
1200 atoms in group gold
8448 atoms in group dynamic
Finding SHAKE clusters ...
  0 = # of size 2 clusters
  2048 = # of size 3 clusters
  256 = # of size 4 clusters
  0 = # of frozen angles
Ewald initialization ...
WARNING: System is not charge neutral, net charge = 3.328e-05 (../kspace.cpp:302)
WARNING: Using 12-bit tables for long-range coulomb (../kspace.cpp:321)
  G vector (1/distance) = 0.134422
  estimated absolute RMS force accuracy = 0.0387028
  estimated relative force accuracy = 0.000116552
  KSpace vectors: actual max1d max3d = 725 7 1687
                  kxmax kymax kzmax  = 6 6 7
Neighbor list info ...
  update every 1 steps, delay 0 steps, check yes
  max neighbors/atom: 30000, page size: 300000
  master list distance cutoff = 22
  ghost atom cutoff = 22
  binsize = 11, bins = 8 7 10
  3 neighbor lists, perpetual/occasional/extra = 3 0 0
  (1) pair lj/cut/coul/long, perpetual, skip from (3)
      attributes: half, newton on
      pair build: skip
      stencil: none
      bin: none
  (2) pair morse, perpetual, skip from (3)
      attributes: half, newton on
      pair build: skip
      stencil: none
      bin: none
  (3) neighbor class addition, perpetual
      attributes: half, newton on
      pair build: half/bin/newton
      stencil: half/bin/3d/newton
      bin: standard
Setting up Verlet run ...
  Unit style    : real
  Current step  : 200100
  Time step     : 1
Per MPI rank memory allocation (min/avg/max) = 34.16 | 34.16 | 34.17 Mbytes
Step Temp Density TotEng KinEng PotEng E_bond E_angle E_dihed E_impro E_vdwl E_coul E_long Volume Enthalpy 
  200100    414.50018   0.84523576    14677.741    9916.0827    4761.6579    1334.3058    5384.9338    818.26161            0   -4168.3969     5639.479   -4246.9254    576642.72    28270.721 
  200200    333.82708   0.84523576    12871.572    7986.1411    4885.4307    1403.2081    5406.3856    817.14095            0   -4149.8573    5649.9976   -4241.4443    576642.72    22459.066 
  200300    340.41336   0.84523576    12973.577    8143.7046     4829.872    1411.6419    5354.1843    842.52508            0   -4191.5824    5654.9776   -4241.8745    576642.72    21384.402 
  200400    341.16316   0.84523576    12947.805    8161.6421    4786.1629    1358.5565    5373.0537    842.51761            0   -4198.6496    5659.9038   -4249.2191    576642.72    21961.431 
  200500    339.53841   0.84523576    12937.532    8122.7734     4814.759    1414.5736    5393.5476    845.03442            0   -4272.0627    5683.0314   -4249.3653    576642.72    20401.709 
  200600     337.9877   0.84523576    12995.957    8085.6756    4910.2817    1439.8428    5452.7724    831.68883            0   -4235.4446    5668.0813    -4246.659    576642.72    21187.224 
  200700    342.90459   0.84523576    13132.352    8203.3024    4929.0496     1440.018    5528.7138    853.77642            0   -4297.4773    5659.3405   -4255.3219    576642.72    20210.211 
  200800    340.96713   0.84523576    13115.142    8156.9525    4958.1894     1424.458     5505.855    798.60806            0   -4177.9824    5669.7034   -4262.4527    576642.72    22055.483 
  200900    345.39933   0.84523576    12970.194    8262.9841    4707.2099    1370.1952    5452.4296    790.27973            0   -4305.8896    5659.8257   -4259.6307    576642.72    21017.763 
  201000    340.35964   0.84523576    12871.115    8142.4195     4728.695    1371.5713    5442.4672    817.41314            0   -4325.4771    5681.8386   -4259.1181    576642.72    20080.436 
  201100     341.6386   0.84523576    12846.493    8173.0161    4673.4767    1389.9297    5368.8101    778.67932            0   -4275.3603    5667.7493   -4256.3315    576642.72    19466.208 
  201200    344.34789   0.84523576    12864.569    8237.8303    4626.7385    1407.3956    5322.9613    822.64352            0   -4307.3997    5646.9749   -4265.8372    576642.72    18772.515 
  201300    342.60883   0.84523576    12939.933    8196.2268    4743.7067    1465.7922    5358.5618    809.96649            0   -4301.8642    5679.4439   -4268.1934    576642.72    18417.064 
  201400    343.48198   0.84523576    13064.577    8217.1153    4847.4613    1485.2117    5471.7749    779.49275            0   -4319.2237    5699.4788   -4269.2731    576642.72    18809.457 
  201500    343.32992   0.84523576    13038.011    8213.4776    4824.5331    1496.1586    5428.5517    795.80391            0   -4309.6672    5682.8085   -4269.1224    576642.72    19220.776 
  201600    338.44651   0.84523576    12778.532    8096.6518    4681.8799    1451.4109     5358.762    759.38059            0   -4333.7373    5714.7922   -4268.7284    576642.72      18130.7 
  201700    334.69966   0.84523576    12732.701     8007.016    4725.6851    1418.7107    5374.9377    786.21382            0   -4265.8902    5689.1977   -4277.4847    576642.72    18218.134 
  201800     339.6567   0.84523576    12863.137    8125.6031    4737.5336    1421.4096    5384.4858    772.05773            0   -4267.4021    5703.5433   -4276.5606    576642.72    18700.344 
  201900    342.65318   0.84523576    12951.663    8197.2878    4754.3748    1407.1733    5415.4789    784.10063            0   -4257.0048    5686.0159   -4281.3891    576642.72    18085.638 
  202000    338.40875   0.84523576    12942.868    8095.7484    4847.1196    1462.9362    5461.7671    786.90143            0   -4290.9464    5710.2896   -4283.8282    576642.72    18201.589 
  202100    337.82686   0.84523576    12848.339    8081.8278    4766.5116    1485.7051    5421.7251     744.5362            0   -4330.5574    5722.9916   -4277.8891    576642.72    17791.752 
  202200    336.37726   0.84523576    12608.303    8047.1492    4561.1541    1369.0238    5370.5454    777.76238            0   -4364.9589    5697.9382   -4289.1568    576642.72     17856.43 
  202300    333.71884   0.84523576    12659.727    7983.5516    4676.1757    1413.8168    5415.1904    820.43395            0   -4396.9353    5710.3258    -4286.656    576642.72    16645.332 
  202400    334.70708   0.84523576    12766.048    8007.1934    4758.8549    1407.6223    5491.7269    795.28102            0   -4340.2647     5700.087   -4295.5977    576642.72    17759.084 
  202500    338.70631   0.84523576    12859.573     8102.867    4756.7059    1409.1044    5532.8847    781.44454            0   -4368.2752    5689.5844    -4288.037    576642.72    17417.984 
  202600    345.20581   0.84523576    12920.843    8258.3545    4662.4883    1412.3047     5447.291     768.4133            0     -4359.31    5680.9362   -4287.1468    576642.72     17567.43 
  202700    341.18595   0.84523576    12854.544    8162.1874     4692.357    1418.4252    5432.4628    793.93661            0   -4371.9568    5707.2462   -4287.7571    576642.72    17634.823 
  202800    331.06429   0.84523576    12660.601    7920.0469    4740.5545    1450.6167    5461.0023    810.56618            0    -4405.954    5715.2602   -4290.9369    576642.72    17622.733 
  202900    333.05611   0.84523576    12646.436    7967.6974    4678.7384    1425.3755    5452.3986    776.91494            0   -4392.5034     5716.701   -4300.1482    576642.72    17236.132 
  203000    339.52027   0.84523576    12843.858    8122.3394    4721.5181    1419.1951    5426.8761    806.08618            0   -4343.3462    5711.4868   -4298.7799    576642.72    18413.156 
  203100    336.70175   0.84523576    12894.922    8054.9119    4840.0101    1456.5926    5526.1746    806.15343            0   -4353.8418    5702.4072   -4297.4759    576642.72    17512.186 
  203200    344.20742   0.84523576    12886.346    8234.4699    4651.8758     1403.805    5460.5636     778.6237            0   -4382.9282    5689.9432   -4298.1315    576642.72    17123.511 
  203300    340.13944   0.84523576    12745.758    8137.1517    4608.6063    1452.9679    5419.0201    765.34074            0   -4415.8444    5698.4869    -4311.365    576642.72    17037.695 
  203400    339.30774   0.84523576    12636.514    8117.2549    4519.2593    1388.1229    5364.9894    755.78578            0   -4396.3044    5721.6776   -4315.0119    576642.72    16958.388 
  203500     338.7367   0.84523576    12728.217    8103.5939    4624.6232    1368.3829    5498.8615    792.52611            0   -4436.3674    5712.9502   -4311.7301    576642.72    16296.306 
  203600    341.18862   0.84523576     12930.73    8162.2511    4768.4789    1484.6396    5474.7147    794.15788            0    -4412.707    5734.8647   -4307.1909    576642.72     17168.58 
  203700    344.92727   0.84523576    12917.825    8251.6909    4666.1341     1469.572    5391.9725    801.36445            0     -4422.48    5728.8668   -4303.1616    576642.72    17123.245 
  203800    340.71839   0.84523576    12784.099    8151.0019    4633.0972    1431.8652    5492.8015    786.74056            0    -4478.779    5714.9086   -4314.4396    576642.72    16153.203 
  203900    338.02228   0.84523576    12665.652    8086.5029    4579.1495    1467.3909    5373.4159    783.68828            0    -4450.797    5716.4055    -4310.954    576642.72    15626.903 
  204000    340.07038   0.84523576    12661.523    8135.4997    4526.0237    1429.6535    5331.1969    784.45681            0   -4444.2122    5731.8193   -4306.8907    576642.72    15372.177 
  204100    342.99347   0.84523576     12783.81    8205.4286    4578.3818    1466.4649    5365.9155     787.3741            0   -4435.6485    5703.5684   -4309.2925    576642.72    16629.041 
  204200     342.8892   0.84523576    12983.397    8202.9342    4780.4626    1489.9143    5553.2311    809.40879            0   -4466.9854    5700.3966   -4305.5028    576642.72    16814.673 
  204300    342.75988   0.84523576    12900.032    8199.8404    4700.1919    1434.0789    5479.3267    851.96612            0   -4484.9798    5725.0001      -4305.2    576642.72    16772.355 
  204400    338.98487   0.84523576    12756.207    8109.5309    4646.6762    1466.4944    5400.0543    812.93805            0   -4467.9133      5741.12   -4306.0172    576642.72    14974.786 
  204500    338.47466   0.84523576    12674.018    8097.3252    4576.6929    1447.8219    5411.7124    787.67181            0   -4493.8671    5732.7058   -4309.3519    576642.72    16107.215 
  204600    338.47769   0.84523576    12668.234    8097.3978    4570.8363    1430.1859    5419.9296    784.64298            0    -4474.371    5722.2695   -4311.8207    576642.72    16115.912 
  204700     342.1783   0.84523576    12751.494    8185.9273    4565.5669    1459.3636    5416.4539    800.27072            0   -4499.9604    5704.6677   -4315.2285    576642.72    15591.182 
  204800    346.95472   0.84523576    12946.165    8300.1937    4645.9716    1420.3241    5455.9773    801.10101            0    -4447.573    5728.4048   -4312.2627    576642.72    17235.813 
  204900    343.51266   0.84523576    12897.218    8217.8492    4679.3693    1511.9973    5444.7979      811.252            0   -4496.0953    5712.6852   -4305.2679    576642.72    15680.204 
  205000    338.27126   0.84523576    12723.174    8092.4592    4630.7148    1452.7065    5387.8834    796.47337            0   -4424.3065     5724.194    -4306.236    576642.72    16110.114 
  205100    340.18359   0.84523576    12676.212     8138.208    4538.0039    1380.0294    5421.2502    778.15235            0   -4501.7301    5767.3302   -4307.0281    576642.72    16609.934 
  205200    339.02055   0.84523576     12682.94    8110.3845    4572.5552    1457.2753    5431.4776    770.62301            0   -4521.2162    5744.8043   -4310.4088    576642.72    16041.064 
  205300    337.58886   0.84523576    12697.808    8076.1342    4621.6736     1400.047    5540.7143     775.3852            0   -4519.9643    5746.6269   -4321.1355    576642.72    16659.302 
  205400    340.83067   0.84523576    12737.663     8153.688    4583.9755    1462.0118    5437.2123    772.78745            0   -4523.8649    5746.9723   -4311.1434    576642.72    15541.491 
  205500    336.97987   0.84523576     12661.27    8061.5653    4599.7043    1428.5854    5445.5595    775.40112            0   -4536.5265    5798.4227    -4311.738    576642.72    15864.456 
  205600    339.24296   0.84523576        12576    8115.7052    4460.2949    1399.6773    5389.4984    771.51719            0   -4560.9893    5769.7025   -4309.1111    576642.72    14435.201 
  205700     337.9931   0.84523576    12587.753    8085.8049    4501.9479    1368.5192    5400.3918    798.28151            0   -4523.8172    5767.6414   -4309.0689    576642.72    15758.893 
  205800    343.26853   0.84523576    12750.769     8212.009    4538.7605    1501.2612     5373.606    774.97705            0   -4551.1425     5762.099   -4322.0403    576642.72    15251.588 
  205900    341.47529   0.84523576    12809.814    8169.1093    4640.7046     1443.962    5522.5189    785.65918            0   -4565.0063    5774.4285   -4320.8577    576642.72    15034.835 
  206000    339.05535   0.84523576    12723.788     8111.217    4612.5711    1410.7916    5548.6085    802.91694            0   -4575.3417    5747.6385   -4322.0428    576642.72    16196.045 
  206100    340.37688   0.84523576    12657.995     8142.832    4515.1625    1476.1958    5403.6925    773.72217            0   -4584.8542    5757.7051   -4311.2988    576642.72    15192.602 
  206200    334.26032   0.84523576    12437.755    7996.5055    4441.2491    1460.4778    5371.1306     774.3403            0   -4587.1475    5738.3042   -4315.8563    576642.72    13986.677 
  206300    335.02849   0.84523576    12350.213    8014.8825    4335.3309    1409.5777    5331.3417     769.9699            0    -4585.664    5722.7516   -4312.6461    576642.72    15420.526 
  206400    336.59861   0.84523576    12487.225    8052.4445    4434.7806    1456.2866     5320.741    785.13952            0    -4548.389    5738.8982   -4317.8957    576642.72    15401.585 
  206500    340.91622   0.84523576    12603.388    8155.7345    4447.6536    1419.4622    5372.6453    786.75476            0   -4540.2259    5723.5094   -4314.4922    576642.72    14968.883 
  206600    337.75386   0.84523576    12678.802    8080.0816    4598.7206    1484.1345    5465.8222    781.70557            0   -4562.6444    5741.5764   -4311.8737    576642.72     14722.42 
  206700    342.44386   0.84523576    12706.205    8192.2804    4513.9249    1433.2662    5438.4711    757.14678            0   -4536.7419    5739.0039   -4317.2212    576642.72    16099.694 
  206800    335.69963   0.84523576    12534.657    8030.9381    4503.7189    1518.9752    5368.7351    780.67266            0    -4600.853    5754.1852   -4317.9962    576642.72    15633.732 
  206900    332.02062   0.84523576    12402.606    7942.9251    4459.6808    1471.1776    5336.3622    808.91531            0   -4568.5144    5739.4703   -4327.7303    576642.72    14904.958 
  207000    341.28875   0.84523576    12497.309    8164.6467     4332.662    1504.7907    5235.8356      786.634            0   -4628.1579    5760.4015   -4326.8419    576642.72    14084.223 
  207100    342.91464   0.84523576     12585.35    8203.5427    4381.8069    1484.3109    5341.3485    775.95712            0   -4644.4048    5747.6272   -4323.0321    576642.72    14016.966 
  207200     336.1875   0.84523576    12618.477    8042.6095    4575.8673    1524.4702    5429.7917    799.47017            0   -4616.4133    5767.6759   -4329.1274    576642.72    14789.084 
  207300    344.91734   0.84523576    12667.325    8251.4535    4415.8713    1447.0863    5339.4347    801.37951            0   -4610.7951    5772.9755   -4334.2097    576642.72    15310.173 
  207400    340.28304   0.84523576    12725.107    8140.5869    4584.5205    1480.6495    5445.6996    818.00218            0   -4608.5581    5787.9764   -4339.2491    576642.72     14429.26 
  207500    348.15831   0.84523576     12836.25     8328.987    4507.2631    1491.6429    5438.5199    790.74499            0   -4647.6685    5766.1909   -4332.1672    576642.72    14659.668 
  207600    343.85091   0.84523576    12690.713    8225.9412    4464.7713    1432.8124    5389.4177    776.30871            0   -4591.0448    5784.1816   -4326.9043    576642.72    16698.305 
  207700    340.01917   0.84523576    12535.044    8134.2745     4400.769    1509.8618    5333.9886    772.97122            0   -4667.6618    5780.7887   -4329.1795    576642.72    13684.274 
  207800    338.52626   0.84523576    12493.882    8098.5595    4395.3222    1476.8852    5345.1827    817.88749            0   -4715.6565    5799.8046   -4328.7813    576642.72    13155.722 
  207900    335.01137   0.84523576    12576.261    8014.4728    4561.7878    1449.1581    5508.5243    785.44102            0   -4653.6122    5806.3004   -4334.0239    576642.72    15632.606 
  208000    345.21645   0.84523576    12733.074    8258.6089    4474.4654    1443.2092    5437.2189    779.45341            0   -4647.5717    5797.4268   -4335.2713    576642.72    16284.608 
  208100    343.29694   0.84523576    12757.232    8212.6886    4544.5433    1437.2672    5500.5475    768.46511            0   -4611.3141     5777.815   -4328.2374    576642.72    16120.047 
  208200    343.01277   0.84523576    12631.362    8205.8904    4425.4713    1467.5651    5415.1913    788.70176            0    -4706.399    5785.8268   -4325.4146    576642.72    14574.712 
  208300    339.92804   0.84523576    12585.359    8132.0943    4453.2645    1428.4633    5376.3308    794.93445            0   -4612.4798     5789.648   -4323.6323    576642.72    14686.162 
  208400    342.83576   0.84523576    12512.634    8201.6558    4310.9781    1436.0227    5346.4601    769.30345            0   -4703.3351    5787.1837   -4324.6568    576642.72    14032.337 
  208500    342.50084   0.84523576    12371.116    8193.6435    4177.4725    1385.3409    5251.5724    736.99983            0   -4649.6787    5778.3058   -4325.0677    576642.72    14935.522 
  208600    336.13923   0.84523576    12306.777    8041.4548    4265.3227    1470.1806    5296.0491    764.12325            0   -4708.8402    5777.3549   -4333.5449    576642.72    13404.416 
  208700     342.5929   0.84523576    12440.803    8195.8457     4244.957    1423.9241    5335.3065    748.85526            0   -4701.0663    5774.8389   -4336.9014    576642.72    14066.506 
  208800    346.64906   0.84523576    12568.061    8292.8812    4275.1796    1420.1315    5321.9282    768.98158            0   -4672.2955    5772.4089   -4335.9752    576642.72    14556.126 
  208900    345.13248   0.84523576     12520.96    8256.6002    4264.3595    1459.4965    5320.9498    769.51582            0   -4719.7667     5771.264      -4337.1    576642.72    14064.417 
  209000     339.5883   0.84523576    12431.551    8123.9668    4307.5839    1402.1383    5380.3062    780.97306            0   -4695.5009    5771.2609   -4331.5937    576642.72    15025.387 
  209100    341.63342   0.84523576    12380.389    8172.8922    4207.4964    1378.0577    5341.7375    754.03753            0   -4715.6768    5784.2874    -4334.947    576642.72    13829.063 
  209200    337.91403   0.84523576    12429.782    8083.9132    4345.8689    1432.4288    5468.6919    732.83907            0   -4761.3868    5805.6237   -4332.3278    576642.72    13527.031 
  209300    340.08176   0.84523576     12653.35    8135.7719    4517.5778    1435.3231     5578.749    750.79379            0   -4706.8186    5794.7254   -4335.1951    576642.72    15222.578 
  209400    344.16923   0.84523576    12630.065    8233.5563    4396.5085    1441.9159    5362.6451    795.65339            0   -4652.6711    5787.9856   -4339.0204    576642.72    15244.419 
  209500    342.77564   0.84523576    12443.386    8200.2174    4243.1691    1428.2229     5299.959    774.95559            0   -4720.1616    5796.1483   -4335.9551    576642.72    15235.953 
  209600    332.28001   0.84523576    12377.049    7949.1306    4427.9186     1398.786    5537.2032    766.75122            0   -4735.5685    5798.3992   -4337.6526    576642.72    14859.302 
  209700    344.98492   0.84523576    12426.616    8253.0701    4173.5463    1373.7823    5345.1363    766.43627            0    -4776.303    5804.6868   -4340.1924    576642.72    15579.087 
  209800     344.0991   0.84523576    12461.618    8231.8786    4229.7389    1434.8245    5313.7795    770.05313            0   -4739.6848    5791.7883   -4341.0217    576642.72    15331.329 
  209900    339.53313   0.84523576    12433.364     8122.647    4310.7166    1485.3907    5383.6511    754.66475            0   -4769.6292    5799.3461   -4342.7069    576642.72    13395.128 
  210000    336.45605   0.84523576      12313.8     8049.034    4264.7661    1498.0567    5375.0527    746.08474            0   -4815.0243    5797.6454    -4337.049    576642.72    12089.641 
  210100    338.60677   0.84523576    12274.098    8100.4855    4173.6126    1436.9987    5295.0247    774.82338            0   -4779.7167     5784.813   -4338.3305    576642.72    13874.875 
  210200    341.12239   0.84523576    12365.484    8160.6667    4204.8177    1440.6468     5369.634    745.11432            0   -4798.6477    5781.4338   -4333.3635    576642.72     13742.78 
  210300    344.81022   0.84523576    12514.893    8248.8907    4266.0022      1480.12    5353.9585    739.97574            0   -4776.0982    5799.6039   -4331.5576    576642.72    14603.612 
  210400    343.13214   0.84523576    12519.712    8208.7459    4310.9665    1396.2423     5396.512    777.62808            0   -4739.9183    5806.3295   -4325.8272    576642.72    14038.004 
  210500    337.77295   0.84523576    12399.358    8080.5382    4318.8194    1435.7381      5433.88    760.51486            0   -4803.2821    5818.3948   -4326.4263    576642.72    12994.832 
  210600    338.42692   0.84523576    12153.399    8096.1831    4057.2156    1460.8891    5272.9507    721.35939            0   -4877.1485    5811.3546   -4332.1897    576642.72    12447.824 
  210700    335.88118   0.84523576     12170.79    8035.2813    4135.5084    1427.1334    5316.7496    739.91729            0   -4818.0426    5811.7182   -4341.9675    576642.72    13673.344 
  210800    336.44987   0.84523576    12342.663    8048.8863    4293.7766     1438.363    5463.3978    747.88142            0   -4819.7085     5806.834   -4342.9911    576642.72    14031.109 
  210900    338.20806   0.84523576    12443.229    8090.9474    4352.2819    1474.2247    5430.2408    773.91411            0   -4791.4502    5813.1274    -4347.775    576642.72    13732.482 
  211000    345.75697   0.84523576    12459.696    8271.5398     4188.156    1418.6648    5358.2541    765.94925            0    -4813.612    5807.4833   -4348.5834    576642.72    14935.266 
  211100    339.51417   0.84523576    12360.156    8122.1934    4237.9624    1430.8554    5464.0043    775.02378            0   -4870.8569    5785.6611   -4346.7253    576642.72     13409.68 
  211200    335.62328   0.84523576    12152.781    8029.1116    4123.6699    1394.4737    5354.6044    772.39426            0   -4831.6742    5776.6328   -4342.7612    576642.72    14111.698 
  211300     338.8817   0.84523576    12167.498    8107.0627    4060.4354    1432.1379    5276.5515    746.16575            0   -4845.4216    5796.1721   -4345.1703    576642.72    14615.943 
  211400    341.00824   0.84523576    12251.554    8157.9359    4093.6183    1465.6666     5285.739    775.13158            0   -4905.2146    5816.9692   -4344.6734    576642.72    13484.809 
  211500     342.2618   0.84523576    12372.808     8187.925    4184.8832    1426.8674    5341.1713    788.01595            0   -4876.0083    5846.6972   -4341.8603    576642.72    13381.881 
  211600    339.54617   0.84523576    12447.648     8122.959    4324.6892    1411.2906    5464.5113    778.59187            0   -4824.5026    5835.3667   -4340.5686    576642.72    14310.327 
  211700    340.77355   0.84523576    12431.842    8152.3216    4279.5207    1484.3781    5402.3191     785.7029            0   -4890.1005    5835.3742   -4338.1532    576642.72    14072.407 
  211800    339.77604   0.84523576    12407.324     8128.458    4278.8661    1425.2596    5399.8573    765.76865            0   -4812.3639    5834.6255   -4334.2812    576642.72    13886.188 
  211900    339.68749   0.84523576    12320.128    8126.3398    4193.7883    1406.6218     5381.419    761.27113            0   -4857.1657    5834.6964   -4333.0543    576642.72    13539.352 
  212000    335.31749   0.84523576    12139.128    8021.7963    4117.3319    1431.0144    5276.0325    737.20391            0   -4802.1302    5820.4565   -4345.2452    576642.72    13462.822 
  212100    330.65153   0.84523576    12142.012    7910.1726    4231.8394    1442.3348    5409.6584    755.62199            0   -4861.3345    5834.8379   -4349.2792    576642.72    12761.919 
  212200    335.41985   0.84523576    12222.819    8024.2449    4198.5743    1439.3398    5356.5939    773.13922            0   -4857.7705    5832.8609   -4345.5891    576642.72    13997.664 
  212300    343.37065   0.84523576    12269.324    8214.4519    4054.8719    1407.7308    5288.2166    752.34851            0   -4866.1368    5822.6133   -4349.9005    576642.72    13475.772 
  212400    339.79004   0.84523576    12331.926    8128.7929    4203.1329    1443.3515    5377.4299    761.11035            0   -4858.5361    5828.0229   -4348.2456    576642.72    13381.945 
  212500    340.06167   0.84523576     12446.32    8135.2913    4311.0285    1485.9181    5418.2351    763.18124            0   -4852.6023    5845.5007   -4349.2044    576642.72    14008.328 
  212600    342.99138   0.84523576    12482.581    8205.3787    4277.2023    1469.8633    5399.3856    771.29961            0   -4859.4555    5843.8685   -4347.7592    576642.72     13684.57 
  212700    337.28406   0.84523576    12244.144    8068.8425    4175.3018      1489.71    5307.1845     758.1749            0   -4851.8479    5823.1545   -4351.0742    576642.72    13141.733 
  212800    336.43431   0.84523576    12160.105    8048.5139    4111.5913    1416.3676    5291.2304    753.34092            0   -4841.7371    5840.2082   -4347.8187    576642.72    14630.761 
  212900    333.26171   0.84523576    12230.776    7972.6159    4258.1597    1485.4162    5355.0966    778.96191            0   -4849.9234     5841.157   -4352.5486    576642.72    13224.372 
  213000    342.48702   0.84523576    12386.413    8193.3129    4193.1002     1371.525    5344.8577    787.47239            0   -4783.5208    5823.5003   -4350.7343    576642.72    14674.195 
  213100    343.38445   0.84523576    12423.439    8214.7819    4208.6575    1422.7134    5362.7985    751.70073            0   -4787.9208    5810.5622   -4351.1966    576642.72     14717.67 
  213200    336.97608   0.84523576    12341.992    8061.4746    4280.5178    1446.3992    5435.2789    779.49263            0   -4861.4425    5833.0482   -4352.2586    576642.72    14120.679 
  213300    343.13898   0.84523576    12294.186    8208.9098    4085.2758     1402.397    5269.7907    775.01797            0   -4874.7194    5856.0172   -4343.2276    576642.72    15052.446 
  213400    341.04368   0.84523576    12267.326    8158.7839    4108.5424    1437.5101    5321.1595    756.65401            0   -4873.9465    5812.2122    -4345.047    576642.72    12659.628 
  213500    337.06066   0.84523576    12266.369    8063.4981    4202.8714    1466.7186    5338.3525    770.19459            0   -4856.7293    5830.9665   -4346.6315    576642.72    12382.881 
  213600    341.52019   0.84523576    12307.285    8170.1833    4137.1019    1414.0132    5323.3496     728.4082            0   -4836.7974    5847.6687   -4339.5404    576642.72    14321.692 
  213700    343.57331   0.84523576    12357.826    8219.3001    4138.5256    1407.0771    5348.3817    748.63661            0     -4879.77    5855.0686   -4340.8684    576642.72    14013.126 
  213800    346.32329   0.84523576    12408.473    8285.0879    4123.3854    1461.7668    5285.3704    769.52532            0    -4904.067     5851.651   -4340.8611    576642.72    13660.325 
  213900    343.32831   0.84523576    12338.864    8213.4391     4125.425    1439.1658    5301.8746    775.74037            0   -4894.9781    5845.5947   -4341.9724    576642.72    13553.673 
  214000    335.91569   0.84523576    12175.993     8036.107    4139.8864    1375.1845    5353.7912    751.95807            0   -4870.5237    5867.0705   -4337.5942    576642.72    14412.602 
  214100    340.85054   0.84523576    12111.728    8154.1633    3957.5651    1365.2588    5235.0046    721.76557            0   -4891.3731    5866.2908   -4339.3815    576642.72    14590.818 
  214200    339.93033   0.84523576    12195.768     8132.149     4063.619     1368.844    5339.4287    754.23612            0    -4933.756    5877.8715   -4343.0054    576642.72    13790.081 
  214300    345.62905   0.84523576    12388.299    8268.4797    4119.8194    1389.8008    5350.8186    773.87556            0   -4923.5354    5877.5552   -4348.6954    576642.72    14382.939 
  214400    339.46638   0.84523576    12389.184    8121.0501    4268.1335    1388.0806    5452.7566    758.06756            0   -4855.3509    5875.4117    -4350.832    576642.72    15043.351 
  214500    335.46384   0.84523576    12327.424    8025.2974    4302.1271    1534.5437    5405.9564    748.56331            0   -4902.7002    5863.0704   -4347.3065    576642.72    12451.567 
  214600    339.44297   0.84523576    12204.936    8120.4901    4084.4461    1442.6001    5246.2508    748.76471            0   -4866.7399    5860.9955   -4347.4251    576642.72    12980.084 
  214700    330.63954   0.84523576    12156.493    7909.8856    4246.6072    1439.2025     5391.749    767.12179            0   -4867.6306    5863.6519   -4347.4874    576642.72    14730.984 
  214800    338.78787   0.84523576    12269.032     8104.818    4164.2143    1426.0992    5365.5801     741.8964            0   -4875.0475    5851.5306   -4345.8444    576642.72    13540.461 
  214900    343.52986   0.84523576    12435.421    8218.2608    4217.1604    1469.7809    5336.8173    754.09282            0   -4858.1978    5860.0372     -4345.37    576642.72    13400.747 
  215000    342.17355   0.84523576    12347.801    8185.8136    4161.9871    1524.2855     5280.143    761.12643            0   -4915.2687    5859.8404   -4348.1395    576642.72    13109.811 
  215100    337.12149   0.84523576     12208.72    8064.9532    4143.7668    1423.2104     5361.732    746.67337            0   -4880.0924     5843.665   -4351.4217    576642.72    14217.995 
  215200    335.97182   0.84523576    12181.505    8037.4497    4144.0548    1398.0456    5424.9159    763.06163            0   -4945.7182    5853.5814   -4349.8316    576642.72     13945.67 
  215300    343.49237   0.84523576     12233.18    8217.3639    4015.8166    1400.1253    5322.7595    777.06009            0   -4958.8878    5828.2569   -4353.4973    576642.72     13539.19 
  215400    344.75555   0.84523576    12258.414    8247.5829    4010.8307    1408.3481    5353.7483    744.02866            0    -4969.124    5826.1831   -4352.3534    576642.72    12862.738 
  215500    335.89529   0.84523576    12240.759     8035.619    4205.1399    1425.1802    5462.2673     749.7133            0   -4929.4792    5844.6254   -4347.1672    576642.72    13993.395 
  215600     343.2149   0.84523576    12226.775     8210.726    4016.0488    1402.9115    5266.0357    771.96723            0   -4932.2341    5853.9643   -4346.5958    576642.72    14174.066 
  215700    337.45247   0.84523576    12214.962    8072.8713    4142.0909    1446.2839     5362.518    736.63385            0   -4919.4603    5858.3523   -4342.2369    576642.72    13045.907 
  215800    340.15503   0.84523576    12248.104    8137.5246    4110.5791    1451.2932    5338.4553     729.6028            0     -4941.01    5872.5025   -4340.2647    576642.72    13231.699 
  215900    343.87062   0.84523576    12372.579    8226.4126    4146.1667    1402.9147    5392.2338    742.80967            0   -4943.6355    5890.5828   -4338.7388    576642.72    12991.463 
  216000    347.07252   0.84523576    12437.547    8303.0117    4134.5354    1395.6952    5380.9367    756.36964            0    -4948.529    5886.6235   -4336.5606    576642.72    13833.877 
  216100    341.83966   0.84523576    12367.362     8177.826    4189.5365    1417.2589    5356.2636    760.40334            0   -4878.6182    5874.1757   -4339.9468    576642.72    12963.166 
  216200    337.35272   0.84523576    12185.192    8070.4849    4114.7067    1468.7154     5338.234    734.07612            0   -4959.0519    5870.2152   -4337.4821    576642.72    12890.625 
  216300    344.73837   0.84523576    12126.872    8247.1719    3879.6998    1362.8704    5295.4884     734.1935            0   -5039.7742     5867.594   -4340.6723    576642.72    12739.102 
  216400    335.63692   0.84523576    12182.971    8029.4379    4153.5333    1379.7152    5411.0615     773.2611            0   -4931.2095    5862.0159    -4341.311    576642.72    13428.823 
  216500    349.38462   0.84523576    12337.598     8358.324     3979.274    1352.6535    5343.7557    750.40449            0   -4987.8934    5862.5345   -4342.1807    576642.72    13434.857 
  216600    343.15537   0.84523576    12362.664    8209.3017    4153.3626    1419.8972    5416.4132    740.43033            0   -4980.8758    5900.3673   -4342.8696    576642.72    14491.575 
  216700    337.57226   0.84523576    12098.017     8075.737    4022.2796    1391.5794    5302.7052    745.15113            0   -4955.4567    5882.5983   -4344.2978    576642.72    13575.594 
  216800    335.31152   0.84523576    12055.359    8021.6535    4033.7055    1429.8085    5318.1769    740.72412            0   -5003.9803    5890.7004    -4341.724    576642.72    12513.672 
  216900    338.55646   0.84523576    12186.415    8099.2822    4087.1332    1409.7153    5395.8499    777.22887            0    -5026.214    5874.8381   -4344.2851    576642.72    12946.861 
  217000    345.40191   0.84523576    12307.524    8263.0458    4044.4777    1398.7812    5342.7388    758.22498            0   -4999.3263    5893.2503   -4349.1912    576642.72    14220.685 
  217100    342.50589   0.84523576    12295.768    8193.7643    4102.0035    1436.9152    5359.1252    728.67449            0   -4973.4617    5896.4295   -4345.6792    576642.72    13078.046 
  217200    337.59338   0.84523576    12166.982    8076.2424    4090.7398    1382.9776    5386.2941    746.25624            0   -4980.3963    5902.6102    -4347.002    576642.72    13149.307 
  217300    335.28142   0.84523576    12005.719    8020.9333    3984.7861    1349.5751     5323.692     754.4367            0   -4980.0918     5886.671   -4349.4969    576642.72     13646.09 
  217400    334.70105   0.84523576     11820.02    8007.0492    3812.9708    1382.7946    5223.4772    713.68133            0   -5021.8041      5863.75   -4348.9281    576642.72    12112.691 
  217500    334.01496   0.84523576    11794.857    7990.6358    3804.2209    1361.8622    5263.9374    710.28309            0    -5055.565    5873.1763    -4349.473    576642.72    12269.708 
  217600    337.64072   0.84523576    12022.054    8077.3748    3944.6794    1415.4245    5272.6835    723.25304            0    -4995.189    5878.6656   -4350.1583    576642.72    13073.746 
  217700    343.67832   0.84523576    12154.141    8221.8122    3932.3285    1447.7149    5220.0031    757.06424            0   -5012.7034    5871.6374   -4351.3879    576642.72    11956.362 
  217800     339.3197   0.84523576     12241.36    8117.5411    4123.8184    1475.2024    5424.5028    755.78287            0    -5043.607    5863.7846   -4351.8472    576642.72    11036.826 
  217900     341.7061   0.84523576    12292.838    8174.6309    4118.2072    1440.3363    5400.3569    760.69571            0   -5002.5272    5867.2387   -4347.8932    576642.72    12105.466 
  218000    339.63923   0.84523576    12224.427    8125.1851    4099.2423    1422.5669    5417.0495    761.92564            0   -4997.8556    5846.5447   -4350.9889    576642.72    12254.155 
  218100    339.25168   0.84523576    12057.344    8115.9138    3941.4301    1356.2308    5275.9948    771.68067            0   -4950.6892    5840.9695   -4352.7564    576642.72    12810.816 
  218200    335.10659   0.84523576     12026.36    8016.7509    4009.6095    1409.0309    5308.2661    759.07004            0   -4976.4413    5859.8925   -4350.2087    576642.72    12090.115 
  218300    345.61396   0.84523576    12224.127    8268.1187    3956.0082    1422.3543    5300.4377    748.12043            0   -5024.8961     5862.607   -4352.6152    576642.72      13444.1 
  218400    342.44817   0.84523576    12302.916    8192.3834    4110.5325    1429.7466    5381.2356    766.16805            0   -4966.4301    5849.9527   -4350.1403    576642.72    12532.787 
  218500     345.2915   0.84523576    12271.405    8260.4042    4011.0008     1446.376    5295.5628    779.34117            0   -5013.7027     5849.766   -4346.3425    576642.72    12065.848 
  218600    342.94167   0.84523576    12134.039    8204.1895    3929.8492    1396.4723    5283.0087    746.49593            0   -5020.6825    5875.0425   -4350.4877    576642.72     12406.85 
  218700    330.65987   0.84523576    12048.839     7910.372    4138.4671    1434.2571    5458.3821    757.72036            0   -5033.9185    5873.8179   -4351.7918    576642.72    12790.914 
  218800    340.93766   0.84523576    12136.357    8156.2474    3980.1093    1441.4243    5285.1252    754.91547            0   -5036.9026     5885.139   -4349.5921    576642.72    12949.727 
  218900    339.81166   0.84523576    12279.491    8129.3101    4150.1813    1433.7696    5456.0847    756.07846            0   -5017.2166    5869.5207   -4348.0556    576642.72    12757.087 
  219000     338.2974   0.84523576    12276.849    8093.0845    4183.7647    1421.9381    5479.1377    723.91878            0    -4959.827    5868.8115   -4350.2143    576642.72    13704.344 
  219100    338.16364   0.84523576    12200.788    8089.8847    4110.9033    1430.0962     5400.577    754.72582            0     -4994.79    5873.4896   -4353.1954    576642.72    13083.336 
  219200    338.59815   0.84523576    12157.793    8100.2794    4057.5133    1436.7167    5369.9165    755.14737            0   -5032.8581    5878.4543   -4349.8634    576642.72    12487.845 
  219300    342.54911   0.84523576     12191.94    8194.7983     3997.142    1456.7781    5279.4919    732.98204            0   -4995.2613     5873.911   -4350.7598    576642.72    12454.017 
  219400    341.56809   0.84523576    12299.658    8171.3294    4128.3285    1452.6581    5385.2805    769.37237            0   -4997.2561    5870.2683   -4351.9948    576642.72    13617.291 
  219500    339.12089   0.84523576    12345.026    8112.7849    4232.2408    1477.3804    5456.9411    774.03162            0   -4984.0692    5857.9116   -4349.9547    576642.72     13370.17 
  219600    340.30955   0.84523576    12161.257    8141.2211    4020.0359    1413.1562    5390.0855    767.67822            0    -5063.997    5863.3713   -4350.2584    576642.72    12420.149 
  219700    336.57446   0.84523576    12050.319    8051.8668     3998.452    1419.1544    5391.7226    754.82021            0   -5100.5329    5884.4688   -4351.1812    576642.72     13073.88 
  219800    335.06561   0.84523576    12031.047    8015.7706    4015.2762    1422.5036    5364.8981     775.9968            0   -5077.2179    5883.1286    -4354.033    576642.72    13753.919 
  219900    341.90399   0.84523576    12136.074     8179.365    3956.7091    1474.0692     5296.819    746.54844            0   -5076.4508    5869.7371   -4354.0139    576642.72    11428.383 
  220000    343.65465   0.84523576    12300.644    8221.2461    4079.3983     1495.917    5421.4035    741.31227            0   -5087.2682    5863.8303   -4355.7966    576642.72    11698.287 
  220100     342.6589   0.84523576    12272.191    8197.4247    4074.7665    1468.4212    5391.2007     768.5183            0   -5075.3415    5877.0025   -4355.0347    576642.72    12450.833 
  220200    346.11922   0.84523576    12152.734    8280.2059    3872.5279    1402.2666    5279.6093    734.20152            0    -5070.446    5880.9347   -4354.0382    576642.72    12777.995 
  220300    337.01539   0.84523576    12109.651    8062.4151    4047.2358    1408.5861    5411.3638    782.07852            0   -5065.9002    5868.0165   -4356.9089    576642.72     13070.65 
  220400    339.15045   0.84523576    12088.206    8113.4921     3974.714    1466.9933    5354.8315    745.52454            0   -5131.1453     5889.023   -4350.5131    576642.72    12914.517 
  220500    341.68139   0.84523576     12061.67    8174.0397    3887.6306    1457.0244    5264.5538    746.61446            0   -5107.7525    5881.7848   -4354.5944    576642.72    12084.227 
  220600    342.10207   0.84523576    12030.638    8184.1036    3846.5347    1401.6541    5262.7573    744.51991            0   -5083.1081    5875.7403   -4355.0288    576642.72    12978.281 
  220700    331.79298   0.84523576    11985.792    7937.4795    4048.3122    1476.2434    5350.2586    754.92097            0   -5061.7673    5881.0322   -4352.3756    576642.72    12490.032 
  220800    335.73066   0.84523576    12085.305    8031.6805    4053.6244    1486.2183    5374.4644    753.88799            0   -5116.6463     5910.786   -4355.0861    576642.72    12817.833 
  220900    344.05092   0.84523576    12253.911    8230.7259    4023.1849    1473.5583    5324.4352    774.39142            0   -5071.4981    5876.8046   -4354.5064    576642.72    12887.079 
  221000    341.81739   0.84523576     12268.92    8177.2932    4091.6271    1447.9165    5408.0804    768.52099            0   -5071.2238    5890.4874   -4352.1545    576642.72     13100.06 
  221100     341.8648   0.84523576    12176.514    8178.4275    3998.0863    1479.1756    5282.7986    762.17183            0   -5053.7711    5879.1714   -4351.4599    576642.72    13090.366 
  221200    338.03262   0.84523576    12008.005    8086.7503    3921.2548    1412.0956    5332.1896    748.70518            0   -5096.7443    5877.2772   -4352.2686    576642.72    12759.357 
  221300    342.40487   0.84523576    12015.364    8191.3475    3824.0167    1383.3232    5248.9996    746.07486            0   -5066.8083    5864.7678   -4352.3405    576642.72    12748.994 
  221400    337.14558   0.84523576    12055.327    8065.5296     3989.797      1468.01    5296.4825    730.94231            0   -5033.2126    5875.8438   -4348.2689    576642.72    13224.947 
  221500    337.31032   0.84523576    12088.039    8069.4707    4018.5687    1444.2768    5410.0983    767.97516            0   -5116.0204    5862.0184   -4349.7797    576642.72    12123.419 
  221600    341.42622   0.84523576    12098.661    8167.9354    3930.7255    1479.0267    5292.6873    759.59203            0   -5117.2159    5867.6346   -4350.9992    576642.72     10834.62 
  221700    342.01229   0.84523576    12124.358    8181.9558    3942.4019    1454.4604    5292.9763    759.99925            0   -5086.3526    5870.1799   -4348.8614    576642.72    12391.296 
  221800    338.11614   0.84523576     12107.24    8088.7483    4018.4918    1480.0505    5306.0122    746.94524            0    -5073.302    5907.2085   -4348.4226    576642.72    11821.837 
  221900    334.68904   0.84523576    12074.042    8006.7619    4067.2801    1487.5886     5347.395    749.08193            0   -5087.5015    5922.3108   -4351.5947    576642.72    11940.078 
  222000    340.26271   0.84523576    12115.348    8140.1007    3975.2474    1422.5662     5365.654    754.85437            0   -5117.4079    5902.4971   -4352.9164    576642.72    12993.142 
  222100    339.43197   0.84523576    12238.639    8120.2269    4118.4125    1435.0017    5417.0613    775.54386            0   -5041.8178    5884.8632   -4352.2398    576642.72    14020.566 
  222200    343.72877   0.84523576    12308.893    8223.0193    4085.8734    1428.1725    5423.6819    770.28815            0   -5045.7058    5865.5581   -4356.1215    576642.72    12756.472 
  222300      336.932   0.84523576    12202.636    8060.4201    4142.2156    1409.2532    5474.2707    747.80726            0   -5014.9832    5878.5648   -4352.6971    576642.72    13296.955 
  222400    340.06728   0.84523576    12023.577    8135.4254    3888.1518    1412.9517    5352.5754    760.89133            0    -5160.344    5874.2037   -4352.1263    576642.72     11580.72 
  222500    338.81709   0.84523576    12011.365    8105.5172    3905.8483    1358.0479    5332.4477    784.63179            0   -5123.9155    5908.2603   -4353.6239    576642.72    12407.603 
  222600     341.0689   0.84523576    12132.502    8159.3872     3973.115    1399.1809    5363.7816    761.31996            0   -5098.7139    5898.9359   -4351.3896    576642.72    12331.119 
  222700    343.67577   0.84523576     12212.03    8221.7512    3990.2793    1448.6935    5329.5052    772.70703            0   -5118.0576    5903.9981   -4346.5669    576642.72    11544.609 
  222800    345.85367   0.84523576    12206.386    8273.8533    3932.5329    1437.6367    5206.2156    783.73757            0   -5035.2443    5888.5341   -4348.3467    576642.72     12132.68 
  222900    337.00179   0.84523576     12180.59    8062.0897    4118.5003    1432.7694    5437.2666    789.76933            0   -5076.2541    5883.4273   -4348.4783    576642.72    11492.567 
  223000    336.90062   0.84523576    12195.233    8059.6694    4135.5637    1478.4672    5397.9028    771.44837            0   -5080.0509    5913.8985   -4346.1022    576642.72    12339.755 
  223100     338.6225   0.84523576    12180.369     8100.862    4079.5074    1456.7052    5359.5559    750.95783            0   -5042.7937    5901.5949   -4346.5127    576642.72    12620.191 
  223200    340.55066   0.84523576     12191.17    8146.9892    4044.1811     1454.439    5413.4179    750.55081            0   -5123.9678    5895.5409   -4345.7996    576642.72    12392.632 
  223300    345.34209   0.84523576    12185.369    8261.6147    3923.7545    1440.9929     5268.708    733.85913            0   -5080.1697    5909.1485   -4348.7843    576642.72     11811.86 
  223400      341.473   0.84523576    12164.997    8169.0543    3995.9429     1413.418    5354.5244    754.94815            0    -5123.321    5939.5529   -4343.1795    576642.72    12141.053 
  223500     340.0363   0.84523576    12124.536    8134.6842     3989.852    1448.5479    5305.5329    760.18875            0   -5084.9315    5904.9178   -4344.4039    576642.72    11670.453 
  223600    338.05456   0.84523576    12149.018    8087.2751    4061.7433    1481.4355    5368.5531    747.30203            0   -5078.7443    5888.9186   -4345.7215    576642.72    11737.018 
  223700    345.38105   0.84523576    12272.629    8262.5467    4010.0819    1414.5822    5424.0273    752.81457            0    -5144.938    5908.3103   -4344.7145    576642.72    12498.795 
  223800    343.81118   0.84523576    12311.325    8224.9908    4086.3339    1457.2025    5442.7902    740.95178            0   -5112.8678    5903.0808   -4344.8236    576642.72    12297.796 
  223900    342.60341   0.84523576    12094.805    8196.0972    3898.7081    1463.1586    5299.9079     751.0332            0   -5170.6543    5900.2076   -4344.9448    576642.72    11253.089 
  224000    339.59537   0.84523576    12030.663     8124.136     3906.527    1428.1554    5329.0247    758.78839            0   -5158.1073    5896.6778    -4348.012    576642.72    12748.983 
  224100    338.41659   0.84523576    12119.443     8095.936    4023.5068    1432.0264    5381.6252    765.69955            0   -5110.2389     5907.175   -4352.7805    576642.72    12613.405 
  224200    346.26993   0.84523576    12224.066    8283.8114    3940.2544    1406.0594    5377.0996    782.99205            0   -5157.3106    5887.2077   -4355.7937    576642.72    11755.592 
  224300    342.05732   0.84523576    12219.126     8183.033    4036.0932     1404.246    5361.5254    751.41903            0   -5038.8786    5910.1037   -4352.3224    576642.72    14501.449 
  224400    342.49884   0.84523576    12025.653    8193.5955    3832.0576    1420.4047    5274.5574    732.70766            0   -5179.2357    5931.8416    -4348.218    576642.72    12269.922 
  224500    334.39337   0.84523576    11926.218    7999.6884      3926.53    1383.4381    5348.2218     727.7492            0   -5104.5496    5920.7275    -4349.057    576642.72     12886.51 
  224600    335.45104   0.84523576    12052.675    8024.9911    4027.6841    1482.5406    5327.6189    743.93219            0   -5101.8976    5923.1002   -4347.6103    576642.72    11027.351 
  224700    341.21106   0.84523576    12174.175    8162.7881    4011.3866    1473.9717     5394.502    747.18209            0   -5201.0645    5942.2647   -4345.4694    576642.72     11813.61 
  224800    337.94108   0.84523576    12204.399    8084.5603    4119.8382    1442.6918    5426.9906    750.55718            0   -5078.6111    5929.8586   -4351.6489    576642.72    13250.282 
  224900    341.93282   0.84523576     12218.88    8180.0546    4038.8249     1476.871    5404.6034    728.21247            0   -5133.5689    5917.2351   -4354.5281    576642.72    12600.322 
  225000    339.16759   0.84523576     12181.93    8113.9022    4068.0278    1449.2457    5409.2662    764.02942            0   -5111.1288    5906.3203    -4349.705    576642.72    11706.951 
  225100    340.53835   0.84523576    12023.335    8146.6948    3876.6398    1376.3969    5292.1358    744.95098            0   -5113.0406    5928.1392   -4351.9424    576642.72    12220.857 
  225200    333.30696   0.84523576    11958.111    7973.6982    3984.4125     1503.205    5237.6149    735.77788            0   -5055.1513    5915.7034   -4352.7373    576642.72    11093.935 
  225300    333.56653   0.84523576    12075.171     7979.908    4095.2631    1448.5183    5394.5271    764.83474            0   -5060.2282    5898.2382   -4350.6272    576642.72    11274.019 
  225400    344.12003   0.84523576    12252.305    8232.3793     4019.926    1376.9641    5426.9482    746.07216            0   -5089.9763    5911.4633   -4351.5456    576642.72    12540.416 
  225500    341.53334   0.84523576     12216.08    8170.4979     4045.582    1442.8312    5372.1231     751.8673            0   -5089.9257    5922.2856   -4353.5995    576642.72    11925.845 
  225600    339.28684   0.84523576    12111.472    8116.7549    3994.7168    1418.9723    5423.8633     754.9674            0   -5177.6238    5929.1778   -4354.6402    576642.72    11815.883 
  225700     338.5081   0.84523576    12006.363    8098.1252     3908.238    1433.9927    5347.9964     736.6164            0   -5177.8458    5920.8282   -4353.3498    576642.72    11497.671 
  225800    337.83001   0.84523576    11979.382    8081.9032    3897.4787    1353.0943    5412.0291    763.53642            0   -5187.1074    5911.5876   -4355.6613    576642.72    11781.062 
  225900     343.3771   0.84523576    12191.398    8214.6063    3976.7922     1447.485    5369.4104    733.71992            0    -5136.944    5917.1057   -4353.9848    576642.72     11448.73 
  226000    343.25162   0.84523576    12234.101    8211.6044     4022.497    1422.6888    5399.9845    758.30463            0   -5089.6006    5883.5748   -4352.4552    576642.72    11915.183 
  226100    347.77534   0.84523576    12103.424    8319.8251    3783.5994    1445.4624    5229.4666     748.4273            0   -5158.9035     5876.432   -4357.2855    576642.72    10879.665 
  226200    335.52732   0.84523576    11972.626    8026.8159    3945.8101     1472.237     5359.101    723.00109            0   -5135.5258    5880.8941   -4353.8973    576642.72    11065.477 
  226300    339.21344   0.84523576    11970.682    8114.9991    3855.6832    1414.0003    5346.0067     720.3221            0   -5191.4485    5920.2575   -4353.4548    576642.72     11232.81 
  226400    340.26912   0.84523576    12062.713    8140.2541    3922.4592    1398.1446    5271.4046    764.56256            0   -5092.8449    5934.4125   -4353.2202    576642.72    12655.119 
  226500    339.76996   0.84523576    12151.174    8128.3127    4022.8609    1435.9698    5411.1457    752.05624            0   -5164.8523    5939.5782   -4351.0369    576642.72    11731.049 
  226600    337.49797   0.84523576    12172.411    8073.9599    4098.4509    1527.6828    5449.2004    736.52312            0   -5179.1725    5910.3706   -4346.1535    576642.72    11350.329 
  226700    345.86085   0.84523576     12169.45    8274.0249    3895.4249    1443.5026     5285.612    735.97421            0    -5135.231    5915.0131   -4349.4461    576642.72    12977.243 
  226800    337.71473   0.84523576    12027.223    8079.1453    3948.0781    1457.3146    5262.0061    727.46009            0   -5059.2729     5908.873   -4348.3027    576642.72    11676.457 
  226900    335.55918   0.84523576    11883.416    8027.5781    3855.8383    1454.9148    5212.9521    751.89173            0   -5138.2427    5926.2883    -4351.966    576642.72    11927.697 
  227000    339.58033   0.84523576    11934.132     8123.776    3810.3556    1431.7536    5330.3867     705.7981            0   -5224.9417    5916.0812   -4348.7223    576642.72    12037.088 
  227100     338.6361   0.84523576    12020.666    8101.1872    3919.4784    1450.6025    5348.7513    725.23131            0   -5191.6706    5940.2289   -4353.6651    576642.72    12075.536 
  227200    340.16581   0.84523576    12089.338    8137.7826    3951.5555     1494.444     5254.685     771.3031            0   -5170.2632    5951.4628   -4350.0763    576642.72    10864.741 
  227300    344.38061   0.84523576    12171.707    8238.6131    3933.0938    1438.1979    5320.8299    740.40702            0   -5146.8588    5932.1578     -4351.64    576642.72    11165.492 
  227400    341.00351   0.84523576    12221.219    8157.8228    4063.3964    1474.7059    5444.0501    744.52477            0   -5158.6511    5911.2998   -4352.5331    576642.72    11542.566 
  227500    344.16653   0.84523576    12169.744    8233.4916    3936.2519    1480.7629    5326.5606    728.15371            0   -5195.4701    5945.7151   -4349.4703    576642.72    10309.194 
  227600    334.34006   0.84523576    11962.281    7998.4132    3963.8676    1474.5151     5365.096    732.23226            0   -5185.4222    5930.1807   -4352.7342    576642.72    11595.669 
  227700    338.88909   0.84523576    11908.745    8107.2397    3801.5055    1432.8089    5277.3772    713.58023            0   -5187.2194    5919.3808   -4354.4222    576642.72    11945.306 
  227800    337.39728   0.84523576    11974.227    8071.5511     3902.676    1493.6395    5385.1493    735.01259            0   -5235.3427    5877.3713    -4353.154    576642.72    10637.493 
  227900    345.13073   0.84523576    12123.032    8256.5584    3866.4732    1494.8874    5356.3367    734.08531            0   -5249.5047    5885.4197   -4354.7513    576642.72    11859.344 
  228000     342.5246   0.84523576    12236.826    8194.2119    4042.6145    1509.7366    5460.7114    739.75788            0   -5196.3378    5883.5667   -4354.8203    576642.72    11962.879 
  228100    346.15039   0.84523576    12213.428    8280.9516    3932.4767    1468.7867    5350.4358     750.7485            0   -5163.4686    5881.0393   -4355.0649    576642.72    13010.366 
  228200    339.85852   0.84523576    11979.354    8130.4312    3848.9227    1442.8326    5381.7942     756.3456            0   -5240.2369    5860.1197   -4351.9326    576642.72    11327.075 
  228300    336.49582   0.84523576    11914.229    8049.9855    3864.2439    1445.5717    5311.7139    743.52263            0   -5187.9943    5900.8154   -4349.3856    576642.72    12826.923 
  228400    340.62153   0.84523576    12029.825    8148.6848    3881.1398    1475.0816    5328.6445    744.23919            0    -5221.785    5905.1426    -4350.183    576642.72    10865.409 
  228500     341.8208   0.84523576    12109.857    8177.3749    3932.4821    1436.5457    5402.0468    737.07723            0    -5216.106    5925.2204    -4352.302    576642.72    12208.514 
  228600    344.62743   0.84523576    12063.025    8244.5179    3818.5067    1398.6921    5364.7659    739.28345            0   -5261.8247     5928.754   -4351.1642    576642.72    11980.759 
  228700    338.46326   0.84523576    11830.584    8097.0524    3733.5319    1395.3807     5221.976    746.21878            0   -5203.3627    5921.5652   -4348.2462    576642.72    12001.474 
  228800     337.5031   0.84523576     11834.59    8074.0825    3760.5077     1416.935    5263.4281    745.02789            0   -5215.9551    5900.5309   -4349.4591    576642.72    11477.601 
  228900    339.56673   0.84523576    11940.245    8123.4508    3816.7947    1434.3563    5334.9449    762.72348            0   -5267.6141    5902.7362    -4350.352    576642.72    11956.288 
  229000    341.03779   0.84523576     12046.84     8158.643    3888.1968     1513.637    5288.2197    746.91984            0   -5224.0038    5915.7653   -4352.3412    576642.72    11291.888 
  229100    341.76435   0.84523576     12028.98    8176.0245    3852.9552    1467.8299     5223.128     759.1279            0   -5170.7084    5920.2242   -4346.6464    576642.72    11059.941 
  229200    338.27299   0.84523576    11913.769    8092.5006     3821.268    1483.6081    5305.1208    750.24551            0   -5293.0431    5926.1455   -4350.8088    576642.72    11276.199 
  229300    332.42648   0.84523576    11670.563    7952.6346    3717.9286    1399.2383    5243.0875    738.61403            0   -5250.5772    5937.4843   -4349.9183    576642.72    11322.358 
  229400    333.34766   0.84523576    11768.336     7974.672     3793.664     1396.367    5327.6352    761.93103            0   -5298.1583    5951.9911   -4346.1021    576642.72    10616.468 
  229500    338.17092   0.84523576    11933.287    8090.0588    3843.2285    1442.9784    5273.6911    762.34364            0   -5240.6488    5949.8964   -4345.0323    576642.72    12762.638 
  229600    338.10617   0.84523576    12059.314    8088.5098     3970.804    1408.7864    5410.5283    754.27285            0   -5201.5297    5942.4389   -4343.6928    576642.72    12353.643 
  229700    338.92055   0.84523576    12126.544    8107.9923    4018.5519    1461.7634    5378.8308      740.761            0   -5160.6636    5944.2935   -4346.4333    576642.72    12543.723 
  229800     343.1992   0.84523576     12097.66    8210.3503    3887.3102    1434.2352    5310.0645    764.54806            0   -5212.9128    5938.0966   -4346.7213    576642.72    11856.723 
  229900    336.14413   0.84523576    11908.453    8041.5719    3866.8807    1427.5678    5266.0201    769.60818            0   -5184.1704    5934.7519    -4346.897    576642.72    13188.444 
  230000    338.32758   0.84523576    11868.387    8093.8066    3774.5805    1368.7042    5264.4435    792.14629            0   -5213.1493    5907.3393   -4344.9036    576642.72    12083.693 
  230100     334.1071   0.84523576    11984.109    7992.8401    3991.2694    1488.2691     5422.095    739.55561            0   -5248.3717    5935.0576   -4345.3363    576642.72     11015.05 
  230200    338.38704   0.84523576    12055.791     8095.229    3960.5619    1473.3714    5322.8763    763.09736            0   -5190.8949     5942.323   -4350.2113    576642.72      11582.2 
  230300    342.96345   0.84523576    12083.161    8204.7104    3878.4506    1523.8627    5219.2987    778.93533            0   -5226.9543    5934.3411   -4351.0329    576642.72    11703.029 
  230400    343.79199   0.84523576    12020.491    8224.5317    3795.9593    1430.8246    5239.3279    728.43662            0    -5189.014    5936.5857   -4350.2016    576642.72    12371.673 
  230500     338.6052   0.84523576    11917.058    8100.4481    3816.6102    1418.8051    5220.0526    754.47977            0     -5183.27    5955.6967    -4349.154    576642.72    11418.714 
  230600    338.69692   0.84523576    12034.555    8102.6423    3931.9124    1469.7797    5333.6477    761.07785            0   -5228.7361    5946.9909   -4350.8478    576642.72    11270.349 
  230700    344.21745   0.84523576    12205.531    8234.7098    3970.8211    1426.6325     5390.388    755.16984            0    -5187.441    5940.8845   -4354.8127    576642.72    12710.946 
  230800    346.45752   0.84523576     12097.78    8288.2991    3809.4808    1443.2672    5310.7188    734.40876            0   -5244.1529    5922.6798   -4357.4409    576642.72    12464.323 
  230900    344.79983   0.84523576     11963.78    8248.6422    3715.1379    1474.7636    5207.3641    734.80293            0   -5260.6484    5916.8263   -4357.9706    576642.72    11110.451 
  231000    335.00456   0.84523576    11877.021    8014.3101    3862.7109    1490.7312    5250.3038    738.07295            0   -5178.0692    5919.7541    -4358.082    576642.72     11430.75 
  231100     334.8439   0.84523576    11887.005    8010.4667    3876.5385    1468.2266    5303.1214    752.58578            0   -5221.5242    5933.5697   -4359.4409    576642.72    11656.886 
  231200    343.16259   0.84523576    12042.765    8209.4745    3833.2909    1427.5351    5307.1206    795.07333            0    -5273.581    5937.6817   -4360.5388    576642.72    11926.641 
  231300    340.70932   0.84523576    12121.183     8150.785     3970.398    1489.3724    5364.0403    777.84758            0   -5226.9718    5926.4092   -4360.2997    576642.72    11753.328 
  231400    340.33422   0.84523576    12100.189    8141.8114    3958.3773    1457.7049    5312.8186    798.05653            0   -5176.2436    5925.3909     -4359.35    576642.72    12098.747 
  231500    342.38532   0.84523576    12065.849    8190.8797     3874.969    1411.1112    5365.7039    779.34453            0   -5237.0328    5916.8982    -4361.056    576642.72    12501.765 
  231600    338.56192   0.84523576    11986.515    8099.4126     3887.102    1446.9771    5322.5013    794.71849            0   -5243.0796    5923.7336    -4357.749    576642.72    11348.189 
  231700    333.28264   0.84523576     11884.37    7973.1166    3911.2532    1390.6019    5295.6635    781.57278            0   -5159.6418    5961.2554   -4358.1986    576642.72      11967.1 
  231800    338.35181   0.84523576    11908.655    8094.3862    3814.2684    1435.2145    5240.5319    774.96788            0   -5232.0623    5954.9919   -4359.3755    576642.72    11311.183 
  231900    343.08559   0.84523576    12106.083    8207.6324    3898.4509    1411.2836    5274.5465     805.5624            0   -5160.4392    5924.4653   -4356.9676    576642.72    12723.017 
  232000    343.85952   0.84523576    12151.501     8226.147    3925.3538    1456.9927    5355.9137    778.23966            0    -5230.842    5923.5448   -4358.4951    576642.72    11938.195 
  232100    340.32793   0.84523576     12063.26     8141.661    3921.5993    1460.9983    5319.7323    801.20734            0   -5232.4552    5930.6446    -4358.528    576642.72    11988.235 
  232200    339.40247   0.84523576    11968.628    8119.5211    3849.1067     1433.213    5322.2702    782.73534            0   -5244.6715    5914.4123   -4358.8526    576642.72    11589.806 
  232300    333.96258   0.84523576    11968.501    7989.3829     3979.118    1427.9615    5333.5819    768.31856            0   -5098.6615    5903.6908   -4355.7732    576642.72    11318.542 
  232400    344.11878   0.84523576    12155.923    8232.3494     3923.574    1458.1934    5354.6957    788.84419            0   -5226.8743    5906.0348   -4357.3198    576642.72    11253.783 
  232500    345.52456   0.84523576    12164.123    8265.9798    3898.1429    1452.9405    5376.6436    801.65348            0   -5302.6854    5922.8263   -4353.2355    576642.72    11433.081 
  232600    336.99115   0.84523576    12020.822    8061.8352    3958.9869    1403.1273     5387.333    787.00675            0   -5194.9485    5931.2366   -4354.7681    576642.72    12502.345 
  232700    338.47596   0.84523576    11946.957    8097.3564    3849.6009    1446.1697    5284.9232    754.53052            0   -5241.5787    5960.0682   -4354.5121    576642.72    12479.807 
  232800    340.02477   0.84523576     11979.75    8134.4085    3845.3417    1409.6326    5342.6405    731.45313            0   -5254.2175    5973.9389   -4358.1059    576642.72    13105.869 
  232900    344.11741   0.84523576    12192.445    8232.3167    3960.1282    1448.5211     5402.164     757.3262            0   -5256.0022    5966.7971   -4358.6781    576642.72     13518.76 
  233000    344.45573   0.84523576    12233.043    8240.4103    3992.6329    1435.3388    5483.5634    772.52163            0   -5298.3552    5956.9279   -4357.3636    576642.72    10504.331 
  233100    338.48215   0.84523576    12129.022    8097.5045    4031.5176    1494.3185    5398.6197    773.44516            0   -5241.0895     5964.382   -4358.1583    576642.72    11097.288 
  233200    336.64122   0.84523576    11994.359    8053.4638    3940.8948    1448.4641    5400.3307     792.0036            0   -5261.3312     5921.434   -4360.0064    576642.72    12105.734 
  233300    336.65332   0.84523576    11972.679    8053.7533    3918.9254    1476.3782    5384.8374    772.15883            0   -5299.4014    5937.3048   -4352.3524    576642.72    11701.067 
  233400    344.24836   0.84523576    12050.643    8235.4493     3815.194       1418.8    5331.9061    770.07955            0   -5271.6268    5919.2652     -4353.23    576642.72    12617.076 
  233500    348.39816   0.84523576    12157.646     8334.725    3822.9211     1456.282    5272.5591     785.0707            0   -5285.8025    5948.2308   -4353.4191    576642.72    12603.224 
  233600    343.47663   0.84523576    12280.179    8216.9872    4063.1913    1485.8886    5454.4787    786.45948            0    -5235.234    5926.3583   -4354.7596    576642.72    13003.253 
  233700    342.29265   0.84523576    12120.241    8188.6628    3931.5785     1477.732    5411.7697    767.84842            0   -5309.3034    5937.1814   -4353.6496    576642.72    11701.444 
  233800    338.82573   0.84523576    11983.902    8105.7237    3878.1787    1458.0204    5297.0731    814.14607            0   -5269.2732    5932.5358   -4354.3235    576642.72    11724.365 
  233900    337.77372   0.84523576    12010.992    8080.5565    3930.4358    1530.1894    5321.5089     780.8357            0   -5268.2367    5925.0462   -4358.9077    576642.72    11366.079 
  234000    342.36925   0.84523576    12073.466    8190.4955    3882.9702    1440.4121    5346.6243    767.90271            0   -5252.5231    5937.4341   -4356.8799    576642.72     11222.07 
  234100    340.89629   0.84523576    12073.968    8155.2579    3918.7096    1464.2135    5385.8063    782.05858            0   -5297.0231    5940.2788   -4356.6245    576642.72     11310.47 
  234200    337.96633   0.84523576    11935.488    8085.1645    3850.3236    1445.9704    5349.3468    774.18064            0   -5300.6412    5942.7616   -4361.2947    576642.72    10957.654 
  234300     336.6672   0.84523576    11862.251    8054.0853    3808.1653     1490.287    5250.1283    781.16935            0    -5304.337    5950.4523   -4359.5348    576642.72    10816.873 
  234400    341.70717   0.84523576    11977.951    8174.6564    3803.2948    1398.8152    5335.0991    764.39114            0   -5274.3455    5941.8872   -4362.5524    576642.72    12602.345 
  234500    342.40533   0.84523576    12128.753    8191.3586    3937.3944    1440.1123    5384.8553    799.29897            0   -5252.2346    5925.8401   -4360.4777    576642.72    11594.815 
  234600    343.38146   0.84523576    12101.005    8214.7104    3886.2947    1482.2214    5318.9925    778.59847            0   -5266.0782    5929.8123   -4357.2518    576642.72    9913.1611 
  234700    342.45055   0.84523576    12040.859    8192.4404    3848.4181     1439.624    5309.2865    776.84448            0    -5279.178    5958.0482   -4356.2071    576642.72    11529.626 
  234800    336.37646   0.84523576    11981.567    8047.1301    3934.4374    1497.9619    5340.0258    783.23444            0   -5279.9335    5950.2553   -4357.1065    576642.72     11172.87 
  234900    340.76115   0.84523576    12000.966    8152.0248    3848.9413    1446.4034    5318.1565    789.81326            0   -5323.8252    5970.8328   -4352.4395    576642.72    12238.248 
  235000     345.0825   0.84523576    12102.667    8255.4045    3847.2621     1464.452    5310.3733     718.9537            0   -5251.2547    5956.3995   -4351.6617    576642.72    12414.161 
  235100    345.92957   0.84523576    12278.957     8275.669     4003.288    1450.2197    5454.2084    778.67922            0   -5261.2696    5935.4263   -4353.9759    576642.72    12691.343 
  235200    346.27251   0.84523576    12153.029     8283.873    3869.1563    1406.3788    5352.0487    798.82488            0    -5270.632    5935.5672   -4353.0313    576642.72    12531.561 
  235300     339.2962   0.84523576    12022.834    8116.9789    3905.8554    1400.4508    5451.9757    792.86999            0   -5303.2901    5912.9207   -4349.0715    576642.72     12054.55 
  235400    339.34462   0.84523576    11979.508    8118.1372    3861.3709     1515.616    5346.8109    790.07139            0   -5374.4206    5932.7989   -4349.5056    576642.72    10225.509 
  235500    339.69248   0.84523576    11994.048    8126.4592    3867.5889    1399.1297    5334.3205    760.66837            0   -5222.9023    5949.8281   -4353.4556    576642.72     12094.86 
  235600    346.58047   0.84523576    12170.116    8291.2404    3878.8755     1456.736    5374.0486    811.13465            0   -5349.5717    5943.7692   -4357.2412    576642.72    10087.652 
  235700    348.69787   0.84523576    12238.302     8341.895    3896.4069    1498.7088    5315.3049    751.42514            0   -5270.0528    5959.8621   -4358.8411    576642.72    12057.213 
  235800    343.47611   0.84523576    12065.179    8216.9749     3848.204    1445.3451    5354.1466    790.15883            0   -5338.1011    5959.3957   -4362.7411    576642.72    12015.506 
  235900    339.62999   0.84523576    11986.694    8124.9642    3861.7299    1481.9426    5316.0944    778.19091            0   -5312.8036    5959.8734   -4361.5677    576642.72    12184.858 
  236000    339.33082   0.84523576    12005.146    8117.8071    3887.3385    1476.4146    5388.0667    763.42859            0   -5354.0078    5970.7436   -4357.3072    576642.72    11670.019 
  236100    343.14027   0.84523576    11966.267    8208.9404    3757.3266    1371.4549    5345.6866     759.2728            0   -5307.3925    5944.7184   -4356.4136    576642.72    11506.715 
  236200    338.12343   0.84523576    11868.564    8088.9227    3779.6415    1398.0369    5359.2357    758.55868            0   -5347.5038    5967.7635   -4356.4495    576642.72    10873.544 
  236300    338.52852   0.84523576    11833.089    8098.6137    3734.4755    1413.8196    5241.1927    760.61549            0   -5296.3629    5972.7705   -4357.5599    576642.72    12340.854 
  236400    345.47306   0.84523576    11974.492    8264.7478    3709.7446    1405.4042     5232.627     756.3683            0   -5283.8753    5955.7088   -4356.4884    576642.72    12443.429 
  236500    344.41745   0.84523576    12089.067    8239.4944    3849.5723    1465.4789    5412.0707    741.84805            0   -5364.7067    5952.1899   -4357.3087    576642.72    11864.963 
  236600    343.17621   0.84523576    11989.486    8209.8004    3779.6852    1485.7367    5322.8494    735.52873            0   -5330.5174    5926.5066   -4360.4188    576642.72     11919.08 
  236700    338.16524   0.84523576    11861.073    8089.9229    3771.1499    1476.1171    5329.4723    767.80258            0   -5380.2057    5935.8297    -4357.866    576642.72    11375.447 
  236800    339.48921   0.84523576    11862.979    8121.5963    3741.3825     1386.265    5345.8176    754.23937            0   -5337.6201    5951.4584   -4358.7778    576642.72    11984.068 
  236900    336.32762   0.84523576    11911.725    8045.9617    3865.7635    1453.4251    5369.8935    757.89647            0   -5296.6272    5938.1337   -4356.9582    576642.72    11546.248 
  237000    341.34136   0.84523576    11996.339    8165.9052    3830.4342    1410.8917    5424.3947    766.23751            0   -5333.6759    5919.2634   -4356.6772    576642.72    11571.179 
  237100    342.27018   0.84523576    12175.691    8188.1254    3987.5651    1470.7177    5439.2561    790.43982            0   -5286.3354    5929.0906   -4355.6037    576642.72    12153.798 
  237200    345.20414   0.84523576    12255.731    8258.3144    3997.4168    1458.9744    5502.4905    796.58767            0    -5333.582    5928.6556   -4355.7094    576642.72    12564.584 
  237300    341.11856   0.84523576    12000.061    8160.5752    3839.4853    1470.1605    5427.2408    759.83157            0   -5392.7669    5931.3672   -4356.3479    576642.72    11375.183 
  237400    335.90008   0.84523576    11930.686    8035.7335    3894.9525    1420.2503    5433.8746    792.37784            0    -5325.143    5929.8927   -4356.2999    576642.72    11666.136 
  237500    339.67735   0.84523576    11919.503    8126.0971    3793.4062    1420.4872    5350.1233      771.483            0   -5307.3493    5915.5393   -4356.8773    576642.72    10849.113 
  237600    337.97185   0.84523576    11899.001    8085.2964    3813.7045    1481.8257    5254.7378    776.88319            0   -5279.4583    5936.7021   -4356.9859    576642.72    10760.579 
  237700    337.63954   0.84523576    11961.091    8077.3467     3883.744    1456.2845    5393.0605    778.26424            0   -5323.1054    5935.5117   -4356.2716    576642.72    11223.913 
  237800     347.6768   0.84523576    12078.563    8317.4679    3761.0949     1477.829     5353.141    737.79079            0   -5375.7817    5924.1511   -4356.0352    576642.72     11265.59 
  237900    340.99409   0.84523576    12023.792    8157.5975    3866.1949    1474.4008    5392.1798    756.54636            0   -5320.1327    5914.4794   -4351.2788    576642.72    11105.506 
  238000     336.7682   0.84523576    11810.642    8056.5016      3754.14    1447.8031    5276.0794    754.05559            0   -5303.4393      5928.27   -4348.6289    576642.72    11989.338 
  238100    342.19126   0.84523576    11805.792    8186.2374    3619.5545    1407.7201    5221.2384    740.88307            0   -5345.5875     5947.524   -4352.2236    576642.72    12148.035 
  238200    339.51846   0.84523576     11921.61     8122.296    3799.3141     1393.693    5384.1882    764.61128            0   -5350.8718    5958.2439   -4350.5504    576642.72    12576.039 
  238300    340.52856   0.84523576    11997.193    8146.4605     3850.732    1440.3765    5407.9637     737.3486            0   -5338.7397    5956.3046   -4352.5217    576642.72    11831.964 
  238400     344.3398   0.84523576    11943.255    8237.6368    3705.6179    1428.4568    5330.2187     726.0891            0   -5370.9225    5945.9356   -4354.1597    576642.72    11117.488 
  238500    337.63392   0.84523576    11772.124    8077.2121    3694.9123    1437.5924    5239.7495    737.18726            0   -5328.2658    5959.7888   -4351.1398    576642.72    11380.129 
  238600    335.88096   0.84523576    11760.956    8035.2762    3725.6797    1420.3821    5242.2599    725.94765            0   -5275.6715    5965.9948   -4353.2332    576642.72    12307.893 
  238700    336.28895   0.84523576    11854.583    8045.0365    3809.5465    1465.7233    5368.6269    763.28675            0    -5378.424    5943.3387   -4353.0051    576642.72    11325.148 
  238800      343.423   0.84523576    11993.815    8215.7043    3778.1111    1470.7665    5314.6008    731.36788            0   -5340.7859    5952.9051   -4350.7434    576642.72    11684.186 
  238900    342.55929   0.84523576    12031.805    8195.0417    3836.7628    1462.6094    5328.1376    742.59882            0   -5299.9164    5952.2308   -4348.8975    576642.72    11240.843 
  239000    337.17319   0.84523576    11950.428    8066.1901    3884.2384    1525.7117    5331.2503    761.95015            0   -5315.6033    5931.4883   -4350.5588    576642.72    11566.512 
  239100    334.17917   0.84523576    11756.578    7994.5643    3762.0137     1401.627    5361.1535    756.56878            0   -5337.8378      5930.72   -4350.2176    576642.72    12067.996 
  239200    335.05645   0.84523576    11769.658    8015.5514     3754.107    1379.0361    5367.7773     749.6456            0   -5325.0563    5934.3512    -4351.647    576642.72    12574.285 
  239300     342.4489   0.84523576     11853.62    8192.4008    3661.2192    1358.2554    5323.9318    778.31377            0   -5364.3206    5916.9475   -4351.9087    576642.72     11776.84 
  239400    343.83988   0.84523576    11896.236    8225.6773    3670.5585    1377.4477    5328.4283    717.40311            0   -5339.9361    5937.2796   -4350.0641    576642.72    11647.349 
  239500    340.29255   0.84523576    11895.562    8140.8147    3754.7469    1381.3933     5355.104    722.17123            0   -5292.9495    5943.4969   -4354.4689    576642.72    12510.821 
  239600    341.56127   0.84523576    11943.583    8171.1662    3772.4172    1418.9504    5329.2871     756.1077            0   -5324.8246    5943.4476    -4350.551    576642.72    11504.977 
  239700    338.27307   0.84523576    12035.308    8092.5027    3942.8054    1515.8607    5406.2159    785.66969            0   -5351.1367    5940.2561   -4354.0603    576642.72    10822.054 
  239800    348.65111   0.84523576    12199.325    8340.7764    3858.5486    1468.5074     5344.063    781.82886            0    -5328.875    5948.5049   -4355.4807    576642.72    12455.682 
  239900    346.38815   0.84523576    12170.123    8286.6396    3883.4836    1416.4231    5393.5787    761.44358            0   -5292.8059    5961.4268   -4356.5826    576642.72     12983.45 
  240000     343.8034   0.84523576    11944.648    8224.8045    3719.8438    1458.1834     5191.658    767.68968            0   -5292.5479    5949.5169   -4354.6563    576642.72    11548.922 
  240100    339.33354   0.84523576    11893.068    8117.8721    3775.1956    1440.7604    5235.3895    792.43696            0   -5294.5801    5953.7721   -4352.5831    576642.72    10439.281 
  240200    337.06995   0.84523576    11941.067    8063.7203    3877.3463    1456.5979    5310.0216    769.42007            0   -5228.6081    5929.0119   -4359.0972    576642.72    10304.982 
  240300    344.09459   0.84523576    12078.981    8231.7707    3847.2105    1456.1298    5347.5518    750.88419            0   -5286.2555    5937.5273    -4358.627    576642.72    11215.407 
  240400    344.85111   0.84523576    12080.757    8249.8689    3830.8882    1394.2304    5429.3335    788.82928            0   -5346.7843    5927.1698   -4361.8905    576642.72    12860.466 
  240500    334.16486   0.84523576    11875.784    7994.2219    3881.5622    1381.7111    5417.5615    785.25233            0   -5296.7634    5957.4727   -4363.6721    576642.72    12271.308 
[...]
  323800    338.63559   0.84523576    11059.073     8101.175     2957.898    1421.0327    5368.4753    797.38546            0    -6287.848    6021.0305    -4362.178    576642.72    9709.5758 
  323900    342.18202   0.84523576    10983.407    8186.0162    2797.3906     1432.064    5322.1573    808.95673            0   -6402.6258    5995.5909   -4358.7526    576642.72    9417.6915 
  324000    344.19785   0.84523576    10966.089    8234.2409    2731.8477    1367.7282    5245.4222    788.83714            0   -6322.5553    6011.1901   -4358.7747    576642.72    10594.704 
  324100    338.80206   0.84523576    11151.298    8105.1576    3046.1403    1436.2759    5451.6657    811.79196            0   -6308.9002    6013.6844   -4358.3774    576642.72    10153.873 
  324200    342.72688   0.84523576    11259.616     8199.051    3060.5651    1436.8768    5452.7527    786.48194            0   -6286.0924    6028.7098   -4358.1638    576642.72    11253.637 
  324300    342.81557   0.84523576    11135.635    8201.1728    2934.4617    1411.0991    5417.6349    776.00053            0   -6329.5122    6011.4405   -4352.2011    576642.72    9846.3313 
  324400    335.33955   0.84523576    10989.003     8022.324    2966.6792    1457.3981    5424.5935    760.98498            0   -6336.5569    6010.3024   -4350.0428    576642.72      10355.2 
  324500    337.63423   0.84523576    10967.761    8077.2196    2890.5417    1441.3769    5316.0018    767.48215            0   -6286.2086    6001.8048   -4349.9154    576642.72    9762.7996 
  324600    340.81046   0.84523576    11021.956    8153.2044    2868.7512    1452.3828    5285.6751    775.23008            0   -6297.6653    6007.1792   -4354.0507    576642.72    9247.9917 
  324700    340.07853   0.84523576    11199.147    8135.6944     3063.453    1458.8693    5398.2605    819.67743            0   -6263.4667    6004.3485    -4354.236    576642.72    9452.2178 
  324800    344.93945   0.84523576    11286.461    8251.9823    3034.4787    1443.8052    5412.3524    770.52113            0   -6236.3097    5998.3764   -4354.2668    576642.72    11887.371 
  324900    343.84686   0.84523576    11177.822    8225.8443    2951.9774     1425.913    5328.5443    831.46385            0   -6271.0014    5994.6634   -4357.6059    576642.72    11781.374 
  325000    341.93085   0.84523576     11114.71    8180.0077     2934.702     1439.715    5374.1136    812.22759            0    -6335.416    6004.1993   -4360.1376    576642.72    10873.161 
  325100    342.05664   0.84523576    11089.362    8183.0168    2906.3453    1446.2549     5343.377    806.27544            0   -6309.8188    5977.7593   -4357.5025    576642.72    9965.9756 
  325200    341.36654   0.84523576    11070.932    8166.5077    2904.4245    1443.8921    5391.4789    797.31707            0   -6326.1711    5954.7303   -4356.8228    576642.72     9606.181 
  325300    341.74622   0.84523576    10951.564    8175.5908    2775.9734    1465.3587    5246.5092     790.7823            0   -6340.3783     5970.423   -4356.7215    576642.72    8747.3918 
  325400    336.14179   0.84523576    10783.191     8041.516    2741.6755    1422.0461    5303.7431    779.45836            0   -6366.4525    5959.3118   -4356.4315    576642.72    9580.4594 
  325500    334.04777   0.84523576    10833.386    7991.4207     2841.965    1388.4512    5285.0073    810.27943            0   -6275.8291    5992.4187   -4358.3626    576642.72    10938.928 
  325600    342.15088   0.84523576    11014.517    8185.2712    2829.2462    1409.0137    5311.3464    788.55637            0   -6321.9374    6004.0749   -4361.8078    576642.72    10093.327 
  325700    342.50114   0.84523576    11058.506    8193.6507    2864.8558    1474.7101     5363.261    765.61673            0   -6391.2414    6014.7146   -4362.2053    576642.72    9481.7847 
  325800    336.35133   0.84523576    10996.758    8046.5287    2950.2292    1510.9644    5298.7148     811.7164            0   -6298.1493     5991.753   -4364.7701    576642.72    10198.038 
  325900    339.54739   0.84523576    10923.992     8122.988    2801.0036    1445.3514    5303.7423    777.54736            0   -6357.8257    5988.7785   -4356.5901    576642.72     9860.664 
  326000    332.43098   0.84523576     10771.19    7952.7424    2818.4473    1396.3374    5356.2732    789.56724            0   -6354.1062    5987.6881   -4357.3124    576642.72    10883.421 
  326100    331.72698   0.84523576    10730.993    7935.9006    2795.0927    1451.9172    5308.5548    763.27195            0   -6376.8447     6006.388   -4358.1945    576642.72    10946.944 
  326200    337.46843   0.84523576    10978.427    8073.2532     2905.174    1490.1886    5293.0048    789.79324            0   -6307.5335    5994.1166   -4354.3958    576642.72    10965.008 
  326300    341.60016   0.84523576    11061.249    8172.0966    2889.1524    1453.3603    5364.0027    779.08441            0   -6358.2383    6006.0694   -4355.1262    576642.72    9686.2411 
  326400    340.21299   0.84523576     11028.67    8138.9111    2889.7584    1420.5196    5388.9482    820.01779            0   -6364.7142    5980.6414   -4355.6544    576642.72    10334.805 
  326500    338.34673   0.84523576    10956.509    8094.2648    2862.2445    1457.3367    5307.3211    821.33403            0   -6370.1959      5999.24   -4352.7914    576642.72    10200.075 
  326600    336.18783   0.84523576    10868.477    8042.6174    2825.8596    1467.8146    5258.8516    779.77736            0   -6340.4465    6013.6496   -4353.7871    576642.72    10196.256 
  326700    337.15754   0.84523576    10863.133    8065.8158     2797.317    1448.1886    5308.3081    789.81442            0   -6384.9091    5992.2138   -4356.2987    576642.72    9897.8014 
  326800    339.50286   0.84523576    10994.035    8121.9228    2872.1126    1461.1286    5317.8264     787.1723            0   -6344.0572    6000.7072   -4350.6647    576642.72    10034.764 
  326900    341.96944   0.84523576    11131.251    8180.9307    2950.3201    1482.8555    5355.4784     833.2411            0   -6362.3128    5993.1526   -4352.0946    576642.72    10009.182 
  327000    340.98409   0.84523576    11178.088    8157.3582    3020.7294    1477.2296    5414.9732    829.02245            0   -6358.0958    6007.5288   -4349.9288    576642.72    10688.078 
  327100    344.97158   0.84523576     11083.91     8252.751    2831.1593     1414.584     5303.723    795.84908            0   -6342.6676    6009.8872   -4350.2165    576642.72    10481.884 
  327200    335.74825   0.84523576     10882.65    8032.1012    2850.5485    1419.1355    5388.0056    805.02259            0    -6429.842    6012.8061   -4344.5791    576642.72    8748.0642 
  327300    334.76856   0.84523576    10896.502    8008.6643    2887.8379    1448.7109    5367.8379    767.43514            0   -6353.7057     6002.195   -4344.6353    576642.72    10009.034 
  327400    339.95352   0.84523576    10971.281     8132.704    2838.5771    1459.2038    5312.1264    804.15597            0   -6395.2415    6008.6091   -4350.2767    576642.72    9728.5227 
  327500    338.88238   0.84523576    11026.055    8107.0791    2918.9755    1413.5894    5375.9363    817.36545            0   -6345.8014    6010.2489   -4352.3632    576642.72    10728.522 
  327600    342.45387   0.84523576     11209.01    8192.5198    3016.4906    1465.3774    5485.8747    770.03416            0   -6364.8291    6015.2113   -4355.1778    576642.72    9854.9428 
  327700    347.40883   0.84523576    11272.379    8311.0572     2961.322    1482.3949    5418.2189    753.73886            0   -6326.9126    5989.1066   -4355.2247    576642.72    9913.4461 
  327800    342.23067   0.84523576    11077.577    8187.1801    2890.3966    1475.7727    5411.2777    756.36811            0   -6403.3164    6006.7048   -4356.4103    576642.72    9561.1536 
  327900    340.69584   0.84523576    10969.806    8150.4626     2819.343    1442.0258    5326.8579    761.80677            0   -6373.1474    6014.0889    -4352.289    576642.72    9010.5915 
  328000     335.2518   0.84523576     10954.79    8020.2248    2934.5651    1470.1816    5354.4798    720.22383            0   -6290.3091    6027.1523   -4347.1633    576642.72    8839.8875 
  328100    340.06973   0.84523576    10996.426    8135.4839    2860.9425     1401.385    5409.8224    745.56708            0     -6362.14    6014.5107   -4348.2026    576642.72      9020.82 
  328200    344.10881   0.84523576    11118.222    8232.1109    2886.1109    1428.7021    5398.8036    735.66666            0   -6329.5488    6000.8348   -4348.3474    576642.72    9614.9153 
  328300    344.06927   0.84523576    11189.055    8231.1649    2957.8896    1409.2548    5444.1967    762.39259            0   -6316.5448    6005.8996   -4347.3094    576642.72    9990.0152 
  328400    341.22598   0.84523576    11037.643    8163.1449    2874.4982    1385.6085    5360.1173    756.14471            0   -6282.8869    6005.3957    -4349.881    576642.72    10595.422 
  328500    341.97105   0.84523576    10870.008    8180.9692    2689.0392    1426.9312     5204.734    735.25756            0   -6323.7388    6000.8836   -4355.0284    576642.72    10355.288 
  328600    336.99452   0.84523576    10835.817    8061.9157     2773.901    1429.2113    5254.3885    765.23646            0   -6323.5237    6003.3581   -4354.7696    576642.72    9632.0506 
  328700    342.19336   0.84523576    10918.028    8186.2875    2731.7408    1455.9241    5242.3129    757.00434            0   -6373.1144    6003.6475   -4354.0337    576642.72    9945.8674 
  328800    345.08199   0.84523576    11100.884    8255.3922    2845.4914    1472.7814    5356.1158    760.19986            0   -6380.4978    5992.1404   -4355.2483    576642.72    9518.6685 
  328900    343.15149   0.84523576    11097.652    8209.2089    2888.4429    1492.8204    5356.0623     760.9201            0    -6364.527    6003.0233   -4359.8562    576642.72     9601.054 
  329000    344.57116   0.84523576     11014.52    8243.1717    2771.3485    1422.8613    5283.6125    763.25882            0   -6343.2529    6007.1188   -4362.2499    576642.72     10145.16 
  329100    337.52698   0.84523576    10987.924    8074.6538    2913.2699     1464.581    5333.8902    795.72005            0   -6331.5923      6007.82   -4357.1492    576642.72    10134.036 
  329200    338.15089   0.84523576    10987.841    8089.5796    2898.2618    1426.3712    5378.2865    752.57701            0   -6325.9918    6023.6766   -4356.6577    576642.72    10879.822 
  329300    339.57401   0.84523576      10986.5    8123.6249    2862.8747    1435.6161    5356.6055    769.13879            0   -6374.4462    6033.0541   -4357.0936    576642.72    10439.614 
  329400    339.32082   0.84523576    10972.409    8117.5679    2854.8414    1451.4013    5278.9988    766.37576            0   -6325.4451    6039.9386    -4356.428    576642.72    9404.0911 
  329500    340.87881   0.84523576    11042.722    8154.8397     2887.882    1420.1254    5358.1808     766.6822            0     -6320.37    6022.9548   -4359.6912    576642.72    9852.0012 
  329600    341.81498   0.84523576    11147.552    8177.2357    2970.3159    1434.3051    5467.9483    767.53731            0   -6373.8117    6032.8564   -4358.5195    576642.72    10092.338 
  329700    342.71311   0.84523576    11143.627    8198.7216    2944.9056    1426.4737    5422.2866    780.25623            0   -6350.0175    6022.7839   -4356.8772    576642.72    10558.969 
  329800      339.673   0.84523576    10936.435     8125.993    2810.4423    1438.6329    5297.5295    772.60118            0   -6379.1832    6036.7563   -4355.8944    576642.72    9591.3555 
  329900    335.51195   0.84523576     10854.67    8026.4482    2828.2217    1413.2082    5328.6819    751.89774            0   -6364.4393    6053.8757   -4355.0025    576642.72    9857.6765 
  330000    340.64998   0.84523576    10923.713    8149.3654    2774.3476    1435.2237     5265.921     758.4647            0   -6360.7405    6030.1004   -4354.6217    576642.72     10091.47 
  330100    344.43596   0.84523576    11052.096    8239.9374    2812.1587    1480.0763    5305.1778     748.8226            0   -6407.9869    6039.7269   -4353.6581    576642.72    10123.565 
  330200    345.11376   0.84523576    11058.775    8256.1523    2802.6228    1398.8404    5398.3245     777.6198            0   -6438.8003    6019.5375   -4352.8991    576642.72    10182.819 
  330300    338.75902   0.84523576    10916.982     8104.128    2812.8537    1455.0165     5363.105     750.6122            0    -6432.654    6030.1435   -4353.3695    576642.72    9199.6905 
  330400    337.52589   0.84523576    10742.236    8074.6279    2667.6083     1435.594    5228.6273    753.08175            0   -6439.0601    6044.5359   -4355.1705    576642.72    10152.379 
  330500    337.53231   0.84523576    10786.807    8074.7813    2712.0254    1417.9769    5292.9645    745.03029            0   -6400.9095    6009.8271   -4352.8638    576642.72    9981.6645 
  330600    339.32983   0.84523576     10912.77    8117.7833    2794.9869    1429.1885    5309.3371    770.59227            0   -6372.0897    6012.5004   -4354.5417    576642.72    10422.446 
  330700    347.12436   0.84523576    11047.976    8304.2519    2743.7238    1433.4652      5264.32    740.37819            0   -6361.2937    6017.5494   -4350.6954    576642.72    10468.609 
  330800    343.31996   0.84523576    11025.132    8213.2393    2811.8932    1539.9989    5319.3518    762.45373            0   -6474.5486    6013.2277   -4348.5902    576642.72    7464.6653 
  330900    339.67753   0.84523576    10864.887    8126.1015    2738.7852    1474.1357    5326.1287    753.06125            0   -6469.8288    6001.2061   -4345.9178    576642.72    8966.4826 
  331000    341.45397   0.84523576    10764.166    8168.5992     2595.567    1413.0027    5210.9722    774.13621            0    -6447.311    5997.5194   -4352.7526    576642.72    8676.5865 
  331100    339.70211   0.84523576    10827.246    8126.6893    2700.5564    1429.2157    5259.4261    758.69861            0   -6407.6997    6014.4098   -4353.4942    576642.72    9745.0782 
  331200    340.79139   0.84523576    10932.439    8152.7484    2779.6909    1490.6365    5299.1544     748.9188            0   -6411.8149    6008.3814   -4355.5854    576642.72    10270.624 
  331300    337.33614   0.84523576    10961.293    8070.0884    2891.2041    1475.3174    5404.3067     766.2886            0   -6395.0326    5998.2841   -4357.9601    576642.72    10436.281 
  331400    343.48169   0.84523576     10944.54    8217.1084    2727.4317    1407.0064      5330.68    775.54844            0   -6446.1934    6015.8289   -4355.4386    576642.72    10059.431 
  331500    332.45021   0.84523576     10839.85    7953.2024    2886.6473    1492.0747    5377.7617    729.69068            0   -6361.0379    6006.2175   -4358.0594    576642.72    9736.0463 
  331600    332.68125   0.84523576    10673.375    7958.7295    2714.6453     1481.963    5243.8645    749.17484            0   -6444.8988    6040.5127   -4355.9709    576642.72    9190.6711 
  331700    332.81865   0.84523576    10768.981    7962.0164    2806.9647    1417.2654    5397.1619    767.12365            0   -6449.7296    6028.6804    -4353.537    576642.72    8830.2315 
  331800    339.91282   0.84523576    10932.903    8131.7303    2801.1725    1423.4626    5370.5133    747.78544            0   -6418.4471     6030.389   -4352.5308    576642.72     9833.994 
  331900    343.29963   0.84523576    10954.387    8212.7528    2741.6345      1435.81     5315.961    778.27013            0   -6463.6081    6031.5926   -4356.3911    576642.72    9485.4779 
  332000     337.5894   0.84523576     10954.92    8076.1472    2878.7727    1455.9188    5391.6898    754.19157            0   -6385.3238    6019.2134    -4356.917    576642.72     10637.77 
  332100    339.64175   0.84523576    10931.588    8125.2455    2806.3421    1491.1853    5252.1763    799.47343            0   -6407.7477    6021.6548      -4350.4    576642.72    9626.0854 
  332200    336.86112   0.84523576    10887.677    8058.7244     2828.953    1457.9778    5326.5331     799.8064            0   -6427.2619    6024.6109   -4352.7133    576642.72    9796.4304 
  332300     340.2689   0.84523576    10920.423    8140.2489    2780.1742    1432.3449    5352.5205    796.65958            0   -6471.2183    6022.3861   -4352.5185    576642.72     9253.516 
  332400    341.44871   0.84523576    11067.752    8168.4733    2899.2787     1440.863     5398.229    797.35831            0   -6418.9883    6035.5289   -4353.7121    576642.72    10759.811 
  332500    344.70065   0.84523576    11135.021    8246.2695    2888.7518    1414.2681    5410.4395    793.52184            0   -6430.3214    6053.1914   -4352.3476    576642.72    10544.978 
  332600    336.96238   0.84523576    11001.726    8061.1469    2940.5788    1441.6388    5407.3376     784.3564            0   -6408.1484    6067.8054    -4352.411    576642.72    9310.7824 
  332700    337.88878   0.84523576    10861.822    8083.3092    2778.5132    1486.5978    5245.7425    804.60777            0   -6468.7326    6060.4581   -4350.1604    576642.72    9236.7327 
  332800    341.80905   0.84523576    10900.169    8177.0937    2723.0755    1430.9778     5176.563    797.00615            0   -6364.3424    6033.0651    -4350.194    576642.72    9448.4219 
  332900    344.85168   0.84523576    11010.396    8249.8825    2760.5139     1463.764    5315.8736    774.80092            0   -6479.2936    6038.3039    -4352.935    576642.72    8756.6165 
  333000    342.66235   0.84523576    11021.624    8197.5073    2824.1169    1429.0758     5393.004    777.93207            0   -6441.6256    6017.8413   -4352.1107    576642.72    10109.366 
  333100    337.36493   0.84523576    10933.089    8070.7771     2862.312    1429.0515    5349.0309    790.21119            0   -6371.0241    6019.7265   -4354.6839    576642.72    10934.921 
  333200    336.78645   0.84523576    10702.205    8056.9382    2645.2664    1384.1138    5284.3151    752.00605            0   -6435.0626    6015.5479   -4355.6539    576642.72    10037.413 
  333300    334.13584   0.84523576    10710.735    7993.5275    2717.2075    1380.6957     5256.848     771.0558            0   -6343.1087    6009.6573   -4357.9407    576642.72    11054.087 
  333400    337.95644   0.84523576    10843.864    8084.9278    2758.9365    1436.4889    5369.7996    807.47365            0    -6499.332     6003.948   -4359.4417    576642.72    10047.805 
  333500    338.10306   0.84523576    10975.741    8088.4354    2887.3053    1514.2486    5305.2576    813.89123            0   -6392.7878    6006.4947   -4359.7991    576642.72    9350.3877 
  333600    343.16287   0.84523576    11072.621    8209.4811    2863.1399    1452.7525    5334.6535    777.63015            0   -6363.4477    6019.1424   -4357.5908    576642.72     10486.88 
  333700    339.61879   0.84523576    11077.451    8124.6961    2952.7549    1492.9322    5395.0244    822.49372            0   -6409.1331    6010.1874   -4358.7497    576642.72    9473.0502 
  333800    339.06539   0.84523576    10906.659    8111.4572    2795.2019    1430.9375    5360.0591    769.22227            0   -6410.6958    6001.6115   -4355.9327    576642.72    9535.2103 
  333900    336.63886   0.84523576    10793.252    8053.4074    2739.8448    1423.3188    5295.8634    774.58729            0   -6408.2683    6012.3649   -4358.0212    576642.72    10583.822 
  334000    332.80171   0.84523576    10843.691    7961.6113    2882.0798    1475.4647    5416.6419    800.00457            0   -6463.8961    6015.5241   -4361.6593    576642.72    10006.714 
  334100    339.80948   0.84523576    10955.369     8129.258    2826.1106    1429.4897     5410.869    782.12953            0   -6441.0822    6005.3824   -4360.6779    576642.72    10353.005 
