LAMMPS (31 Mar 2017)
  using 1 OpenMP thread(s) per MPI task
Reading data file ...
  orthogonal box = (0 0 0) to (81.6 70.667 100)
  4 by 3 by 1 MPI processor grid
  reading atoms ...
  9648 atoms
  scanning bonds ...
  1 = max bonds/atom
  scanning angles ...
  6 = max angles/atom
  scanning dihedrals ...
  9 = max dihedrals/atom
  reading bonds ...
  8192 bonds
  reading angles ...
  14848 angles
  reading dihedrals ...
  15360 dihedrals
Finding 1-2 1-3 1-4 neighbors ...
  special bond factors lj:   0          0          0.5       
  special bond factors coul: 0          0          0.5       
  4 = max # of 1-2 neighbors
  6 = max # of 1-3 neighbors
  12 = max # of 1-4 neighbors
  14 = max # of special neighbors
1200 atoms in group gold
256 atoms in group thiol
8448 atoms in group dynamic
Ewald initialization ...
WARNING: System is not charge neutral, net charge = 3.328e-05 (../kspace.cpp:302)
WARNING: Using 12-bit tables for long-range coulomb (../kspace.cpp:321)
  G vector (1/distance) = 0.134422
  estimated absolute RMS force accuracy = 0.0387028
  estimated relative force accuracy = 0.000116552
  KSpace vectors: actual max1d max3d = 725 7 1687
                  kxmax kymax kzmax  = 6 6 7
Neighbor list info ...
  update every 1 steps, delay 0 steps, check yes
  max neighbors/atom: 30000, page size: 300000
  master list distance cutoff = 22
  ghost atom cutoff = 22
  binsize = 11, bins = 8 7 10
  3 neighbor lists, perpetual/occasional/extra = 3 0 0
  (1) pair lj/cut/coul/long, perpetual, skip from (3)
      attributes: half, newton on
      pair build: skip
      stencil: none
      bin: none
  (2) pair morse, perpetual, skip from (3)
      attributes: half, newton on
      pair build: skip
      stencil: none
      bin: none
  (3) neighbor class addition, perpetual
      attributes: half, newton on
      pair build: half/bin/newton
      stencil: half/bin/3d/newton
      bin: standard
Setting up cg style minimization ...
  Unit style    : real
Per MPI rank memory allocation (min/avg/max) = 34.39 | 34.4 | 34.4 Mbytes
Step Temp Press KinEng PotEng TotEng Density 
       0            0   -1018.7492            0   -2775.9748   -2775.9748   0.84523576 
     100            0   -673.65876            0   -9018.9153   -9018.9153   0.84523576 
Loop time of 2.82373 on 12 procs for 100 steps with 9648 atoms

98.9% CPU use with 12 MPI tasks x 1 OpenMP threads

Minimization stats:
  Stopping criterion = max iterations
  Energy initial, next-to-last, final = 
        -2775.97483133      -9009.4181121      -9018.9152862
  Force two-norm initial, final = 1039.28 85.7926
  Force max component initial, final = 26.9377 4.04599
  Final line search alpha, max atom move = 0.00437745 0.0177111
  Iterations, force evaluations = 100 196

MPI task timing breakdown:
Section |  min time  |  avg time  |  max time  |%varavg| %total
---------------------------------------------------------------
Pair    | 1.8643     | 1.9661     | 2.0506     |   3.7 | 69.63
Bond    | 0.079459   | 0.083918   | 0.088622   |   0.8 |  2.97
Kspace  | 0.63553    | 0.71594    | 0.80254    |   5.5 | 25.35
Neigh   | 0          | 0          | 0          |   0.0 |  0.00
Comm    | 0.029775   | 0.046995   | 0.062146   |   4.6 |  1.66
Output  | 3.3855e-05 | 5.0922e-05 | 0.00023484 |   0.0 |  0.00
Modify  | 0.00024557 | 0.00033166 | 0.00038552 |   0.0 |  0.01
Other   |            | 0.01036    |            |       |  0.37

Nlocal:    804 ave 817 max 784 min
Histogram: 1 0 1 1 0 2 2 1 3 1
Nghost:    6462.17 ave 6494 max 6428 min
Histogram: 1 1 0 1 3 3 0 0 1 2
Neighs:    867219 ave 886374 max 820490 min
Histogram: 1 0 0 1 0 3 1 0 0 6

Total # of neighbors = 10406626
Ave neighs/atom = 1078.63
Ave special neighs/atom = 7.9602
Neighbor list builds = 0
Dangerous builds = 0
Ewald initialization ...
WARNING: Using 12-bit tables for long-range coulomb (../kspace.cpp:321)
  G vector (1/distance) = 0.134422
  estimated absolute RMS force accuracy = 0.0387028
  estimated relative force accuracy = 0.000116552
  KSpace vectors: actual max1d max3d = 725 7 1687
                  kxmax kymax kzmax  = 6 6 7
Setting up Verlet run ...
  Unit style    : real
  Current step  : 100
  Time step     : 1
Per MPI rank memory allocation (min/avg/max) = 33.29 | 33.29 | 33.29 Mbytes
Step Temp Press KinEng PotEng TotEng Density 
     100            0   -673.65876            0   -9018.9153   -9018.9153   0.84523576 
     200    1.2626773   -692.84569    36.309389   -9104.7867   -9068.4773   0.84523576 
     300    1.3910497   -737.14342    40.000851    -9170.718   -9130.7172   0.84523576 
     400     1.505927    -760.6806    43.304247   -9233.1951   -9189.8909   0.84523576 
     500    1.6153306   -768.13641    46.450245   -9285.9527   -9239.5025   0.84523576 
     600    1.7821027   -768.43879    51.245923   -9322.8201   -9271.5742   0.84523576 
     700    2.0314682   -770.22944    58.416646    -9359.564   -9301.1473   0.84523576 
     800    2.3098011   -776.35479    66.420352    -9397.172   -9330.7516   0.84523576 
     900    2.5925598   -780.73142    74.551324    -9436.801   -9362.2496   0.84523576 
    1000    2.8074542    -768.7136    80.730801   -9473.8077   -9393.0769   0.84523576 
    1100    2.9843048   -782.89758    85.816295   -9505.9061   -9420.0898   0.84523576 
    1200    3.1927959   -788.92365    91.811638   -9526.3461   -9434.5345   0.84523576 
    1300    3.3196439   -795.78071    95.459265     -9539.08   -9443.6208   0.84523576 
    1400    3.5713932   -805.28001    102.69854   -9551.0402   -9448.3417   0.84523576 
    1500    3.7878097   -797.69071    108.92178    -9561.761   -9452.8392   0.84523576 
    1600    4.0112433   -796.88455    115.34681   -9568.3482   -9453.0014   0.84523576 
    1700    4.2239802   -812.17599    121.46424   -9578.7767   -9457.3125   0.84523576 
    1800    4.5512709   -820.59591    130.87577   -9585.0492   -9454.1735   0.84523576 
    1900    4.7227442   -806.97417    135.80664   -9593.3278   -9457.5211   0.84523576 
    2000    5.0226501   -799.72037    144.43069   -9598.1072   -9453.6765   0.84523576 
    2100    5.3177204   -819.11674     152.9157   -9602.3704   -9449.4547   0.84523576 
    2200    5.3659211   -805.34268    154.30175   -9609.9404   -9455.6387   0.84523576 
    2300    5.7015884   -802.31727    163.95416   -9613.0219   -9449.0677   0.84523576 
    2400    5.9365463   -812.37712    170.71058   -9616.7436   -9446.0331   0.84523576 
    2500    6.1343023   -810.17024    176.39723   -9617.2958   -9440.8986   0.84523576 
    2600    6.4732422   -781.15714    186.14374   -9617.8123   -9431.6686   0.84523576 
    2700    6.6127691    -811.2854    190.15596   -9619.9555   -9429.7996   0.84523576 
    2800    6.8289202    -785.4223    196.37157   -9619.2159   -9422.8444   0.84523576 
    2900    7.1362843   -793.43657    205.21009   -9615.8014   -9410.5913   0.84523576 
    3000    7.2467649   -793.68604    208.38706   -9616.3755   -9407.9885   0.84523576 
    3100    7.5244624   -796.40302     216.3725   -9611.7642   -9395.3917   0.84523576 
    3200    7.7609945   -789.88122    223.17419   -9611.6853   -9388.5112   0.84523576 
    3300    7.9134342   -788.53326    227.55772    -9605.987   -9378.4293   0.84523576 
    3400    8.1911685   -759.23901    235.54421   -9600.4127   -9364.8685   0.84523576 
    3500    8.4785903   -765.54009    243.80928   -9601.8127   -9358.0034   0.84523576 
    3600    8.5814705   -762.60624    246.76769   -9598.1874   -9351.4197   0.84523576 
    3700    8.8664827   -771.44655    254.96346    -9594.203   -9339.2395   0.84523576 
    3800    8.9078303   -766.39318    256.15245   -9588.6412   -9332.4887   0.84523576 
    3900    9.1718754   -751.38301     263.7453   -9585.3792   -9321.6339   0.84523576 
    4000    9.4180738   -748.43104    270.82495   -9584.4538   -9313.6289   0.84523576 
    4100    9.6241017   -767.98337    276.74946   -9581.4047   -9304.6552   0.84523576 
    4200    9.6314045   -758.72639    276.95946   -9575.0003   -9298.0409   0.84523576 
    4300      9.94524   -765.44449    285.98408   -9569.9016   -9283.9175   0.84523576 
    4400    10.093733   -755.88744    290.25413   -9564.2227   -9273.9685   0.84523576 
    4500    10.436372   -761.91798      300.107   -9565.5083   -9265.4013   0.84523576 
    4600    10.580674   -746.48642    304.25653   -9558.9224   -9254.6659   0.84523576 
    4700    10.651564   -729.55377    306.29504   -9559.2766   -9252.9816   0.84523576 
    4800    10.782138   -758.62566    310.04981   -9553.0099   -9242.9601   0.84523576 
    4900    10.957588   -724.07017    315.09503    -9546.492   -9231.3969   0.84523576 
    5000    10.933237   -727.21031     314.3948   -9542.0288    -9227.634   0.84523576 
    5100    11.257011   -732.43211     323.7052   -9540.9316   -9217.2264   0.84523576 
    5200    11.457135   -726.12416    329.45993   -9544.7304   -9215.2705   0.84523576 
    5300    11.570257    -696.4603    332.71285   -9541.8241   -9209.1113   0.84523576 
    5400    11.683779   -698.57035    335.97729   -9538.5627   -9202.5854   0.84523576 
    5500     11.77326    -708.5283    338.55039     -9541.98   -9203.4296   0.84523576 
    5600     12.05187   -732.06464    346.56205   -9530.1342   -9183.5721   0.84523576 
    5700    12.265367   -723.77533    352.70136   -9534.4001   -9181.6987   0.84523576 
    5800    12.365281   -698.76766    355.57447    -9524.179   -9168.6045   0.84523576 
    5900    12.362958   -728.93074    355.50768   -9521.6463   -9166.1386   0.84523576 
    6000    12.507866   -739.11218    359.67464   -9519.9622   -9160.2876   0.84523576 
    6100    12.557319    -689.1314    361.09668   -9520.5687    -9159.472   0.84523576 
    6200    12.671416   -686.54884    364.37765   -9521.4811   -9157.1034   0.84523576 
    6300    12.894796   -657.88808    370.80114   -9520.4389   -9149.6377   0.84523576 
    6400    13.034512   -691.23253     374.8188   -9516.7696   -9141.9508   0.84523576 
    6500    13.118984   -716.62873    377.24786   -9507.5619   -9130.3141   0.84523576 
    6600    13.391746   -720.71174    385.09138    -9508.123   -9123.0316   0.84523576 
    6700    13.257763   -691.15549    381.23857   -9506.0272   -9124.7886   0.84523576 
    6800    13.428482    -690.8186    386.14775   -9495.5641   -9109.4164   0.84523576 
    6900    13.465675   -683.52492    387.21725   -9493.6624   -9106.4451   0.84523576 
    7000    13.905923   -701.51662    399.87698   -9498.1681   -9098.2911   0.84523576 
    7100    13.854418   -648.13496    398.39591   -9494.6156   -9096.2197   0.84523576 
    7200    14.018454   -651.60081    403.11291   -9492.5535   -9089.4406   0.84523576 
    7300    14.277322    -635.9182    410.55687   -9490.2959   -9079.7391   0.84523576 
    7400    14.119911   -674.40757    406.03038    -9489.759   -9083.7286   0.84523576 
    7500    14.349886   -648.33398    412.64353   -9492.5803   -9079.9368   0.84523576 
    7600    14.388631    -666.8733    413.75768   -9489.7152   -9075.9575   0.84523576 
    7700    14.541093   -623.52663    418.14185   -9487.4082   -9069.2664   0.84523576 
    7800    14.649907    -654.5689     421.2709   -9480.7792   -9059.5083   0.84523576 
    7900    14.679271   -637.67367    422.11526   -9485.9858   -9063.8705   0.84523576 
    8000    14.795649   -663.23671    425.46183   -9482.9467   -9057.4848   0.84523576 
    8100    14.793433   -710.67094     425.3981   -9485.7304   -9060.3323   0.84523576 
    8200     15.13858   -653.53574    435.32312   -9475.6093   -9040.2862   0.84523576 
    8300    15.261385   -681.62422    438.85446   -9480.9928   -9042.1383   0.84523576 
    8400    14.878198   -668.52795    427.83558   -9475.7624   -9047.9268   0.84523576 
    8500    15.248817   -638.90215    438.49306   -9474.2892   -9035.7961   0.84523576 
    8600    14.952214   -675.15908    429.96398   -9463.7952   -9033.8312   0.84523576 
    8700    15.436986   -653.48614    443.90402    -9466.852    -9022.948   0.84523576 
    8800    15.732585   -658.17009    452.40424    -9471.557   -9019.1528   0.84523576 
    8900    15.715666   -632.24913    451.91773   -9458.2645   -9006.3467   0.84523576 
    9000    15.893714   -657.74331    457.03765   -9463.1436   -9006.1059   0.84523576 
    9100     16.04428   -693.51507    461.36731   -9467.4248   -9006.0575   0.84523576 
    9200    15.933707   -639.61847    458.18768   -9461.8466    -9003.659   0.84523576 
    9300    16.352115    -683.9718    470.21936   -9457.0034    -8986.784   0.84523576 
    9400    16.191944   -670.99021    465.61352   -9455.7721   -8990.1586   0.84523576 
    9500    16.287109   -667.28481    468.35005   -9447.2693   -8978.9193   0.84523576 
    9600    16.622028   -660.03962    477.98097   -9457.3261   -8979.3451   0.84523576 
    9700    16.608374   -625.17232    477.58833   -9443.1239   -8965.5355   0.84523576 
    9800    16.318729    -706.0887    469.25932   -9446.7191   -8977.4598   0.84523576 
    9900    16.673744   -669.43782    479.46809   -9448.7899   -8969.3218   0.84523576 
   10000    16.569188   -658.84721    476.46149   -9449.2701   -8972.8086   0.84523576 
   10100    16.781178   -670.96316    482.55744   -9448.3159   -8965.7585   0.84523576 
   10200      16.9036   -650.19403    486.07779   -9440.1681   -8954.0903   0.84523576 
   10300    16.940004   -648.79127    487.12462   -9444.4406   -8957.3159   0.84523576 
   10400      16.8486    -642.3522    484.49622   -9433.2518   -8948.7556   0.84523576 
   10500     17.21958   -642.08335    495.16409   -9427.7424   -8932.5783   0.84523576 
   10600    17.372774   -606.07023     499.5693   -9434.7545   -8935.1852   0.84523576 
   10700    17.358942   -614.93204    499.17155   -9434.5861   -8935.4145   0.84523576 
   10800    17.381354   -678.83216    499.81605   -9424.1429   -8924.3269   0.84523576 
   10900    17.575345    -636.0215    505.39442   -9420.2176   -8914.8232   0.84523576 
   11000    17.695196   -642.89602    508.84084   -9429.5104   -8920.6695   0.84523576 
   11100    17.721166   -626.75531    509.58764   -9432.8203   -8923.2326   0.84523576 
   11200    17.795423    -565.4031    511.72294   -9420.3658   -8908.6428   0.84523576 
   11300    17.941778   -632.05927    515.93153   -9422.6493   -8906.7177   0.84523576 
   11400    18.048345   -629.23274    518.99595   -9421.7392   -8902.7432   0.84523576 
   11500    17.986826   -646.95211     517.2269   -9416.8969     -8899.67   0.84523576 
   11600    17.996065    -591.6614     517.4926   -9414.0443   -8896.5518   0.84523576 
   11700    18.028598   -633.48604    518.42811   -9409.2213   -8890.7932   0.84523576 
   11800    18.308339    -644.8736     526.4723   -9402.6976   -8876.2253   0.84523576 
   11900    18.104378   -625.30866    520.60722   -9418.8172     -8898.21   0.84523576 
   12000    18.217815   -613.63266    523.86921   -9416.7539   -8892.8847   0.84523576 
   12100    18.164386   -618.86658    522.33281   -9415.4432   -8893.1104   0.84523576 
   12200    18.738897   -627.42532    538.85336   -9406.8248   -8867.9714   0.84523576 
   12300    18.859678   -614.76523    542.32652    -9417.638   -8875.3115   0.84523576 
   12400    18.575497   -648.26935    534.15467   -9403.0705   -8868.9159   0.84523576 
   12500    18.634822   -606.23752     535.8606   -9400.2458   -8864.3852   0.84523576 
   12600    19.020031   -528.93166    546.93763   -9403.5319   -8856.5943   0.84523576 
   12700    18.991274   -613.59239     546.1107   -9401.0713   -8854.9606   0.84523576 
   12800    19.009407   -589.83433    546.63213   -9401.3889   -8854.7567   0.84523576 
   12900    19.096844   -609.00168    549.14645   -9393.4427   -8844.2963   0.84523576 
   13000    19.155106   -555.47221    550.82184   -9389.0941   -8838.2722   0.84523576 
   13100    19.399841   -614.57401    557.85939   -9388.4169   -8830.5575   0.84523576 
   13200    19.421474   -541.72149    558.48146    -9390.387   -8831.9056   0.84523576 
   13300    19.413818   -551.11774    558.26132   -9398.9713   -8840.7099   0.84523576 
   13400    19.285338   -613.07479    554.56675   -9390.1463   -8835.5796   0.84523576 
   13500     19.77051   -612.29368     568.5183   -9406.3979   -8837.8796   0.84523576 
   13600    19.524546   -618.94222    561.44539   -9403.7873   -8842.3419   0.84523576 
   13700     19.60026   -629.82417    563.62262   -9385.9505   -8822.3279   0.84523576 
   13800    19.676519   -624.87321    565.81551    -9392.098   -8826.2825   0.84523576 
   13900    19.806247   -566.20372    569.54595   -9382.3315   -8812.7855   0.84523576 
   14000    19.940503   -587.57645    573.40661   -9388.4522   -8815.0456   0.84523576 
   14100    20.032666    -585.1593    576.05683   -9378.9343   -8802.8775   0.84523576 
   14200    20.174059   -600.36166     580.1227   -9389.2284   -8809.1057   0.84523576 
   14300    20.026787   -634.52986    575.88779   -9378.5226   -8802.6348   0.84523576 
   14400     20.33016   -588.22457    584.61153   -9382.4198   -8797.8082   0.84523576 
   14500    20.249784   -639.89186    582.30023   -9379.2831   -8796.9829   0.84523576 
   14600    20.460975   -589.79564    588.37323   -9380.9363   -8792.5631   0.84523576 
   14700     20.56323   -680.93951    591.31367   -9381.1464   -8789.8328   0.84523576 
   14800    20.903312   -563.44282    601.09303   -9380.7891   -8779.6961   0.84523576 
   14900     20.63019   -597.38818    593.23914   -9380.3068   -8787.0676   0.84523576 
   15000    20.701465   -648.21719    595.28873   -9381.2287     -8785.94   0.84523576 
   15100    20.810856   -624.90727    598.43436   -9376.9392   -8778.5049   0.84523576 
   15200    20.956738   -630.92073    602.62932   -9374.7074   -8772.0781   0.84523576 
   15300    20.664088   -615.76124    594.21393   -9371.1538   -8776.9399   0.84523576 
   15400    20.722748   -595.54331    595.90073   -9372.6052   -8776.7045   0.84523576 
   15500    21.048185   -613.05302    605.25896   -9378.9715   -8773.7126   0.84523576 
   15600    20.987021   -561.64041    603.50015   -9373.1284   -8769.6283   0.84523576 
   15700     21.18945   -560.53509    609.32118   -9358.8378   -8749.5166   0.84523576 
   15800    21.331146   -575.79593    613.39575   -9361.5337    -8748.138   0.84523576 
   15900    21.369947   -617.75757    614.51152   -9367.2328   -8752.7213   0.84523576 
   16000    21.174316   -585.43261    608.88597   -9370.7308   -8761.8448   0.84523576 
   16100     21.53069   -614.37516    619.13383   -9368.2522   -8749.1184   0.84523576 
   16200    21.512023   -578.71785    618.59703    -9363.396    -8744.799   0.84523576 
   16300    21.982686   -572.10952    632.13137   -9359.0425   -8726.9112   0.84523576 
   16400    21.351859   -604.18245    613.99138    -9347.138   -8733.1466   0.84523576 
   16500    21.776239   -629.97201    626.19479   -9351.5804   -8725.3856   0.84523576 
   16600    21.593106   -583.76888    620.92864   -9356.7918   -8735.8632   0.84523576 
   16700    21.664474    -566.1044    622.98088   -9336.6577   -8713.6768   0.84523576 
   16800    22.075698   -574.05243      634.806        -9351    -8716.194   0.84523576 
   16900    21.728306   -548.06483    624.81644   -9349.7724    -8724.956   0.84523576 
   17000    21.924677   -581.72966    630.46325   -9334.6786   -8704.2154   0.84523576 
   17100    21.813052   -589.95456    627.25338   -9345.5799   -8718.3265   0.84523576 
   17200    21.915198   -642.71861    630.19069   -9345.6753   -8715.4846   0.84523576 
   17300    22.237957   -580.64084    639.47191   -9335.9054   -8696.4335   0.84523576 
   17400    21.888327   -579.73244    629.41799   -9338.0426   -8708.6246   0.84523576 
   17500    22.375605   -595.19244    643.43009   -9332.5469   -8689.1168   0.84523576 
   17600    22.560411   -574.46118    648.74435   -9336.0658   -8687.3215   0.84523576 
   17700    22.458198   -590.85829    645.80513   -9332.6853   -8686.8801   0.84523576 
   17800    22.337914   -600.51293    642.34625   -9329.4545   -8687.1082   0.84523576 
   17900    22.686436   -606.82324    652.36831   -9342.2124   -8689.8441   0.84523576 
   18000    22.457974   -563.51528    645.79869   -9336.0928   -8690.2941   0.84523576 
   18100    22.531123   -508.35388    647.90215   -9335.1202   -8687.2181   0.84523576 
   18200    22.352373   -564.33551    642.76202   -9321.9568   -8679.1948   0.84523576 
   18300    22.834413   -565.22624    656.62353   -9338.6806    -8682.057   0.84523576 
   18400    22.744934   -570.11684    654.05046   -9330.9932   -8676.9428   0.84523576 
   18500    23.101662   -577.59994    664.30851   -9320.6486   -8656.3401   0.84523576 
   18600    22.955493   -585.73687    660.10529   -9320.6953     -8660.59   0.84523576 
   18700    23.068282   -625.28683    663.34864   -9317.0804   -8653.7317   0.84523576 
   18800    22.971795   -547.81719    660.57405   -9319.5416   -8658.9675   0.84523576 
   18900    23.234376   -552.50827    668.12479   -9323.3413   -8655.2165   0.84523576 
   19000    23.336347   -585.89446    671.05706   -9313.3901   -8642.3331   0.84523576 
   19100       23.418   -582.14294    673.40506   -9306.8095   -8633.4045   0.84523576 
   19200    23.192945   -587.13776    666.93342   -9311.3797   -8644.4462   0.84523576 
   19300    23.317086   -563.21103    670.50319   -9301.2498   -8630.7466   0.84523576 
   19400    23.120537    -515.5668    664.85126   -9316.2664   -8651.4151   0.84523576 
   19500    23.465051   -547.22591    674.75806   -9310.4375   -8635.6795   0.84523576 
   19600    23.746616   -603.59949     682.8547   -9317.0733   -8634.2186   0.84523576 
   19700    23.512401   -587.45042    676.11965   -9303.5561   -8627.4364   0.84523576 
   19800    23.602257   -604.60613    678.70353   -9311.2946    -8632.591   0.84523576 
   19900    23.949303   -530.80081    688.68315   -9314.0422    -8625.359   0.84523576 
   20000    23.752222   -607.61732    683.01593   -9301.4533   -8618.4374   0.84523576 
   20100    23.571287   -542.24632    677.81298   -9303.9358   -8626.1228   0.84523576 
   20200    23.901517    -552.0651    687.30902   -9303.8645   -8616.5555   0.84523576 
   20300    23.899652   -540.89268    687.25539   -9312.8038   -8625.5485   0.84523576 
   20400    24.033444   -549.34252     691.1027   -9302.4377    -8611.335   0.84523576 
   20500    24.544128   -567.89983    705.78785   -9301.8535   -8596.0656   0.84523576 
   20600    23.864871   -587.37447    686.25525   -9294.0299   -8607.7747   0.84523576 
   20700    24.397895   -549.36532     701.5828    -9288.399   -8586.8162   0.84523576 
   20800    23.966298   -500.59621    689.17187   -9286.6612   -8597.4893   0.84523576 
   20900    24.345226   -527.08294    700.06827   -9284.0044   -8583.9362   0.84523576 
   21000     24.67435   -542.51994    709.53252   -9278.9619   -8569.4294   0.84523576 
   21100    24.395432   -545.90598    701.51198   -9277.8357   -8576.3238   0.84523576 
   21200    24.455315   -546.44062    703.23396   -9281.9027   -8578.6688   0.84523576 
   21300    24.377694   -529.05869    701.00191   -9277.4688   -8576.4668   0.84523576 
   21400    24.335688   -523.44393    699.79399    -9289.342    -8589.548   0.84523576 
   21500    24.498992   -548.13115    704.48995   -9284.2544   -8579.7644   0.84523576 
   21600    24.555106   -552.40583    706.10355   -9274.8041   -8568.7005   0.84523576 
   21700     24.59636   -533.92886    707.28984   -9274.3305   -8567.0407   0.84523576 
   21800    24.900263     -549.744    716.02884   -9267.4972   -8551.4683   0.84523576 
   21900    25.043193   -532.52498    720.13891   -9267.9452   -8547.8063   0.84523576 
   22000    25.150859   -559.34334    723.23495   -9276.7382   -8553.5032   0.84523576 
   22100     25.04522   -552.76812    720.19721   -9268.1538   -8547.9566   0.84523576 
   22200    25.363803   -516.83157    729.35834   -9262.6893    -8533.331   0.84523576 
   22300    25.406381   -515.28027    730.58271   -9268.8749   -8538.2922   0.84523576 
   22400    25.380894   -514.74423    729.84981    -9265.556   -8535.7061   0.84523576 
   22500    24.822449   -569.52084    713.79124   -9270.7829   -8556.9917   0.84523576 
   22600     25.30024   -521.51713    727.53053   -9263.2438   -8535.7132   0.84523576 
   22700    25.309655   -545.01339    727.80125   -9268.5033   -8540.7021   0.84523576 
   22800    25.652789   -541.43743    737.66837   -9255.4564    -8517.788   0.84523576 
   22900    25.217622    -503.9872    725.15476   -9264.4636   -8539.3089   0.84523576 
   23000    25.301094   -484.93604    727.55509    -9257.571   -8530.0159   0.84523576 
   23100    25.401514   -518.76892    730.44274    -9252.753   -8522.3103   0.84523576 
   23200    25.250481   -496.98382    726.09966   -9271.2148   -8545.1152   0.84523576 
   23300     25.35156   -511.30995    729.00629   -9253.7692   -8524.7629   0.84523576 
   23400    25.442036   -505.82253      731.608   -9260.0931   -8528.4851   0.84523576 
   23500    25.546909   -518.99614    734.62371    -9261.564   -8526.9403   0.84523576 
   23600    25.915318    -558.2495    745.21764   -9257.0725   -8511.8548   0.84523576 
   23700     26.02076   -581.78946    748.24971   -9248.9045   -8500.6548   0.84523576 
   23800    26.080641    -530.5644    749.97164   -9252.5982   -8502.6266   0.84523576 
   23900    26.107408   -512.15099    750.74135   -9246.8808   -8496.1395   0.84523576 
   24000     25.82574   -513.11151    742.64173    -9250.871   -8508.2292   0.84523576 
   24100    25.677296   -530.51927    738.37311   -9255.4015   -8517.0283   0.84523576 
   24200    26.333815    -506.9725    757.25187   -9250.8129   -8493.5611   0.84523576 
   24300    26.363798    -509.7143    758.11406   -9257.3003   -8499.1862   0.84523576 
   24400    26.143647   -534.74593    751.78343   -9240.5637   -8488.7803   0.84523576 
   24500    26.692598   -526.52197    767.56899   -9238.2335   -8470.6645   0.84523576 
   24600    26.388253   -544.64238     758.8173   -9235.8425   -8477.0252   0.84523576 
   24700    26.274096   -572.64961    755.53462   -9239.5325   -8483.9978   0.84523576 
   24800    26.657439   -540.48804    766.55797   -9246.7387   -8480.1807   0.84523576 
   24900     26.50446    -520.0546    762.15892   -9247.7432   -8485.5843   0.84523576 
   25000    26.346235   -576.42628    757.60904   -9220.3051   -8462.6961   0.84523576 
   25100    26.338035   -484.28214    757.37323   -9245.7986   -8488.4254   0.84523576 
   25200       26.885   -551.82212    773.10168    -9245.308   -8472.2063   0.84523576 
   25300    26.327836     -517.505    757.07994   -9231.3696   -8474.2896   0.84523576 
   25400    26.833945   -505.96656    771.63356   -9235.4726    -8463.839   0.84523576 
   25500    26.941778   -547.10268    774.73438   -9239.7827   -8465.0483   0.84523576 
   25600    26.381447   -485.10658    758.62158   -9214.8163   -8456.1947   0.84523576 
   25700    27.295023   -567.71592    784.89227   -9216.3557   -8431.4634   0.84523576 
   25800    26.785698    -536.6359    770.24616    -9226.038   -8455.7918   0.84523576 
   25900    26.748841   -564.98683    769.18632   -9215.0857   -8445.8994   0.84523576 
   26000    27.008397   -547.23401    776.65006   -9222.8348   -8446.1848   0.84523576 
   26100    26.557639   -539.68429    763.68814   -9224.1239   -8460.4358   0.84523576 
   26200    27.012437   -504.33492    776.76625   -9223.2677   -8446.5014   0.84523576 
   26300    26.869693   -596.06947    772.66152   -9230.2875    -8457.626   0.84523576 
   26400    26.574712   -509.98201    764.17908   -9213.5723   -8449.3933   0.84523576 
   26500    27.247419   -525.83631    783.52336   -9221.8938   -8438.3704   0.84523576 
   26600    27.362186   -526.23582     786.8236   -9220.3064   -8433.4828   0.84523576 
   26700    27.441063   -540.18486    789.09176   -9225.4182   -8436.3265   0.84523576 
   26800    27.584414   -572.93594    793.21395   -9222.0737   -8428.8598   0.84523576 
   26900    27.532327   -477.19434    791.71613   -9203.3465   -8411.6304   0.84523576 
   27000    27.608217    -533.7189    793.89842    -9210.026   -8416.1276   0.84523576 
   27100    27.872824   -569.78326    801.50744   -9202.6174     -8401.11   0.84523576 
   27200    27.430308   -526.62887     788.7825   -9206.9982   -8418.2157   0.84523576 
   27300    27.269734   -522.08463    784.16505    -9201.877    -8417.712   0.84523576 
   27400    27.709407   -567.34091    796.80823   -9203.9616   -8407.1534   0.84523576 
   27500    27.587611   -521.04464    793.30589   -9212.6021   -8419.2962   0.84523576 
   27600    27.924143   -521.30628    802.98315   -9217.2083   -8414.2251   0.84523576 
   27700    27.893192   -519.06884    802.09314   -9201.6962    -8399.603   0.84523576 
   27800    28.027568   -485.99678    805.95724   -9192.1437   -8386.1865   0.84523576 
   27900      28.1363   -485.81646    809.08391    -9199.996   -8390.9121   0.84523576 
   28000    28.359735   -549.49906      815.509   -9198.7666   -8383.2576   0.84523576 
   28100    27.943682    -479.1052    803.54501   -9204.8826   -8401.3376   0.84523576 
   28200    28.132589   -587.25952    808.97719   -9200.4997   -8391.5225   0.84523576 
   28300    28.376722   -554.97797    815.99747   -9196.5051   -8380.5076   0.84523576 
   28400    28.230458   -543.29152    811.79151    -9201.278   -8389.4865   0.84523576 
   28500    28.434893   -530.22968    817.67022   -9195.6535   -8377.9833   0.84523576 
   28600    28.039468   -560.44027    806.29941   -9188.1922   -8381.8927   0.84523576 
   28700    28.747097   -566.92164    826.64791   -9188.6405   -8361.9926   0.84523576 
   28800    28.755894   -538.28485    826.90089   -9186.7375   -8359.8366   0.84523576 
   28900    28.332614   -506.11583    814.72909   -9196.5954   -8381.8663   0.84523576 
   29000     28.69837   -540.86825    825.24673   -9197.5482   -8372.3015   0.84523576 
   29100    28.630905   -539.36637    823.30671   -9183.6786   -8360.3719   0.84523576 
   29200    28.930356   -531.11212    831.91769   -9184.5619   -8352.6442   0.84523576 
   29300    28.275322   -495.71811    813.08163   -9188.0668   -8374.9852   0.84523576 
   29400    28.569667   -518.15756    821.54577    -9190.659   -8369.1133   0.84523576 
   29500    28.994355   -503.10584    833.75803   -9179.3127   -8345.5547   0.84523576 
   29600     28.84846   -521.59988    829.56269      -9173.8   -8344.2373   0.84523576 
   29700    28.721758   -514.31824    825.91928   -9176.2615   -8350.3422   0.84523576 
   29800    29.095674   -519.37014    836.67156    -9172.909   -8336.2374   0.84523576 
   29900    29.300942   -486.24159    842.57421    -9185.472   -8342.8977   0.84523576 
   30000    28.629452   -553.35533    823.26493   -9179.0933   -8355.8284   0.84523576 
   30100    29.121578   -556.63766    837.41646    -9168.794   -8331.3775   0.84523576 
   30200    29.167791   -518.50709    838.74532   -9170.1634   -8331.4181   0.84523576 
   30300     29.12947   -575.98719    837.64339   -9183.1677   -8345.5243   0.84523576 
   30400    28.991767   -568.33921    833.68361   -9171.9765   -8338.2929   0.84523576 
   30500    29.480509   -582.23338    847.73782   -9169.5131   -8321.7753   0.84523576 
   30600     29.09998    -493.9135    836.79538   -9170.8469   -8334.0516   0.84523576 
   30700    29.305969   -506.02695    842.71877   -9164.1729   -8321.4541   0.84523576 
   30800    29.385218   -490.22923    844.99765   -9172.7633   -8327.7657   0.84523576 
   30900    29.276779   -554.53478    841.87939   -9160.0012   -8318.1218   0.84523576 
   31000    29.900246    -438.2005    859.80773   -9161.2289   -8301.4212   0.84523576 
   31100    29.259697   -541.18996    841.38817    -9161.638   -8320.2498   0.84523576 
   31200    29.452021   -476.02589    846.91864   -9168.3851   -8321.4665   0.84523576 
   31300     29.38314   -477.31907    844.93788   -9179.3876   -8334.4497   0.84523576 
   31400    29.764244   -571.15381    855.89687   -9169.3079    -8313.411   0.84523576 
   31500    29.960003   -557.78254    861.52609   -9157.5183   -8295.9922   0.84523576 
   31600     29.91179   -482.26862    860.13968   -9167.6095   -8307.4698   0.84523576 
   31700    29.512478   -525.59785    848.65711   -9160.5273   -8311.8702   0.84523576 
   31800     29.87127   -538.76253    858.97451    -9168.096   -8309.1215   0.84523576 
   31900    29.872654   -504.22867    859.01429   -9158.8353    -8299.821   0.84523576 
   32000    29.723786   -526.51488    854.73346     -9148.36   -8293.6265   0.84523576 
   32100    30.011539   -534.19706    863.00806    -9157.979    -8294.971   0.84523576 
   32200    30.032608   -432.70976     863.6139   -9150.5806   -8286.9667   0.84523576 
   32300    30.063804   -491.72624    864.51098    -9145.705    -8281.194   0.84523576 
   32400    30.436856   -507.39776    875.23842   -9173.1597   -8297.9212   0.84523576 
   32500    30.041548   -481.57903    863.87097   -9143.6494   -8279.7784   0.84523576 
   32600    30.452745   -559.36996    875.69533   -9157.0697   -8281.3744   0.84523576 
   32700    30.128395   -515.07315    866.36834   -9160.5508   -8294.1825   0.84523576 
   32800    30.880936   -506.20063    888.00833   -9142.2628   -8254.2545   0.84523576 
   32900    30.043594    -505.5604    863.92981   -9135.5921   -8271.6623   0.84523576 
   33000    30.593901   -448.93011    879.75438   -9156.8179   -8277.0635   0.84523576 
   33100    30.583596   -491.50197    879.45805   -9148.1162   -8268.6581   0.84523576 
   33200    30.758551   -556.39114    884.48902   -9140.5604   -8256.0714   0.84523576 
   33300    30.603792    -526.3534     880.0388   -9151.2996   -8271.2608   0.84523576 
   33400    30.500705   -485.60383    877.07446   -9146.1475   -8269.0731   0.84523576 
   33500     30.74745   -470.11493    884.16983   -9152.6849    -8268.515   0.84523576 
   33600     30.46702   -524.26811     876.1058    -9144.491   -8268.3852   0.84523576 
   33700    30.645043    -516.5733    881.22501   -9141.6232   -8260.3981   0.84523576 
   33800    30.724885   -511.48184    883.52093   -9123.7058   -8240.1849   0.84523576 
   33900    30.369238   -503.52559    873.29399   -9131.1451   -8257.8511   0.84523576 
   34000    30.755234    -551.4803    884.39365   -9138.1103   -8253.7167   0.84523576 
   34100    30.610793   -503.85269    880.24011   -9124.4547   -8244.2146   0.84523576 
   34200    30.786311    -496.0461     885.2873   -9131.0468   -8245.7595   0.84523576 
   34300    31.302706   -507.30281     900.1367   -9131.9253   -8231.7886   0.84523576 
   34400    31.322355   -520.19054     900.7017   -9135.6551   -8234.9534   0.84523576 
   34500    31.258677   -519.02063    898.87061   -9126.5462   -8227.6756   0.84523576 
   34600    31.043604   -556.23041    892.68599   -9119.9126   -8227.2266   0.84523576 
   34700     31.53878   -539.84342    906.92521   -9132.1828   -8225.2575   0.84523576 
   34800    31.217052   -519.97448    897.67363   -9131.7046    -8234.031   0.84523576 
   34900    31.146951   -519.30387    895.65781   -9128.7208    -8233.063   0.84523576 
   35000    31.222823   -517.76026    897.83957   -9121.2331   -8223.3935   0.84523576 
   35100     31.32527   -481.32079    900.78554   -9113.8534   -8213.0679   0.84523576 
   35200    31.877164   -546.51861    916.65574   -9104.8468    -8188.191   0.84523576 
   35300    31.229094   -525.85078    898.01992   -9123.5314   -8225.5115   0.84523576 
   35400     31.55283   -453.37838    907.32921   -9110.3328   -8203.0035   0.84523576 
   35500    31.995791    -480.8506    920.06695   -9125.7152   -8205.6483   0.84523576 
   35600    31.801995   -461.96445    914.49417    -9114.369   -8199.8748   0.84523576 
   35700    31.983376   -493.92593    919.70994   -9109.7766   -8190.0667   0.84523576 
   35800      31.8732   -471.32198    916.54173   -9120.4855   -8203.9438   0.84523576 
   35900     31.65616   -472.29544    910.30055   -9113.5522   -8203.2516   0.84523576 
   36000    31.689927   -502.10167    911.27156   -9112.6835   -8201.4119   0.84523576 
   36100    32.004929   -508.72436    920.32972   -9110.8862   -8190.5565   0.84523576 
   36200     32.07185   -502.34823     922.2541   -9102.0479   -8179.7938   0.84523576 
   36300    31.710848   -470.89653    911.87317   -9098.1205   -8186.2473   0.84523576 
   36400    31.582122   -461.99147    908.17154   -9103.9098   -8195.7383   0.84523576 
   36500    31.672714    -487.8099    910.77659    -9110.595   -8199.8184   0.84523576 
   36600    32.418841   -452.22581    932.23212   -9113.8671   -8181.6349   0.84523576 
   36700    32.305262   -460.26761    928.96607   -9095.6971    -8166.731   0.84523576 
   36800    32.134626   -539.40161    924.05928   -9095.2835   -8171.2242   0.84523576 
   36900     32.72063   -535.66644    940.91032   -9109.3575   -8168.4472   0.84523576 
   37000    32.638295   -523.65772    938.54271   -9103.2977    -8164.755   0.84523576 
   37100    31.890267   -546.80642    917.03251   -9093.8035    -8176.771   0.84523576 
   37200    32.565582    -499.5406    936.45179   -9109.3643   -8172.9125   0.84523576 
   37300    32.356289   -504.02964    930.43339   -9093.1945   -8162.7611   0.84523576 
   37400     31.98198   -586.34392     919.6698   -9094.8236   -8175.1538   0.84523576 
   37500    32.144102   -511.67521    924.33177   -9091.2688    -8166.937   0.84523576 
   37600    32.380226   -445.74419    931.12171   -9118.7518     -8187.63   0.84523576 
   37700    32.446886   -510.26097    933.03859   -9095.5764   -8162.5379   0.84523576 
   37800     32.47931   -543.02977    933.97097   -9088.9247   -8154.9537   0.84523576 
   37900    32.173971   -514.18099    925.19067   -9088.9329   -8163.7422   0.84523576 
   38000    32.033738   -540.03793    921.15815   -9081.8294   -8160.6712   0.84523576 
   38100    32.707312   -537.82479    940.52737   -9082.8451   -8142.3177   0.84523576 
   38200    32.424633   -455.89153    932.39868   -9102.4963   -8170.0976   0.84523576 
   38300    31.827337   -489.05041    915.22291   -9092.7223   -8177.4993   0.84523576 
   38400    32.181008   -570.83983    925.39304   -9086.0301   -8160.6371   0.84523576 
   38500    33.328203   -466.42422    958.38162   -9082.7949   -8124.4133   0.84523576 
   38600    33.192323   -472.00651    954.47429   -9089.3124   -8134.8381   0.84523576 
   38700    32.437333   -554.49787    932.76386   -9074.7475   -8141.9836   0.84523576 
   38800    32.933979   -480.07921    947.04537   -9074.6939   -8127.6486   0.84523576 
   38900    33.294884   -509.23756     957.4235   -9081.5748   -8124.1513   0.84523576 
   39000    32.489853   -480.02662    934.27414   -9091.9636   -8157.6895   0.84523576 
   39100    33.162214     -445.563    953.60846   -9072.8773   -8119.2689   0.84523576 
   39200    33.282711   -442.92113    957.07345   -9083.2604   -8126.1869   0.84523576 
   39300    33.492583   -502.14561    963.10851   -9053.3874   -8090.2789   0.84523576 
   39400    33.246946   -449.92485    956.04501   -9064.0349   -8107.9899   0.84523576 
   39500    33.363549   -530.33515    959.39802   -9067.5457   -8108.1476   0.84523576 
   39600    33.666969   -480.88959    968.12315   -9065.9955   -8097.8723   0.84523576 
   39700    33.711069   -496.56734    969.39128   -9073.3041   -8103.9128   0.84523576 
   39800    33.213117   -457.63421    955.07223   -9073.4821   -8118.4099   0.84523576 
   39900    32.790912   -408.90175    942.93136   -9052.0154   -8109.0841   0.84523576 
   40000    33.667806    -483.0337    968.14721   -9090.0615   -8121.9143   0.84523576 
   40100    33.526447   -522.97513    964.08232   -9065.8093    -8101.727   0.84523576 
   40200    33.580244   -543.12518    965.62929   -9070.6078   -8104.9785   0.84523576 
   40300    33.175386   -486.29422    953.98725   -9080.9485   -8126.9613   0.84523576 
   40400    33.716794   -471.41289    969.55591   -9076.0524   -8106.4965   0.84523576 
   40500    33.115432   -511.54654    952.26319   -9068.5843   -8116.3211   0.84523576 
   40600    33.345966   -483.52321    958.89242   -9068.2601   -8109.3677   0.84523576 
   40700     33.82486    -439.2734    972.66343   -9067.2597   -8094.5963   0.84523576 
   40800    33.613589   -459.54791    966.58815   -9073.0327   -8106.4446   0.84523576 
   40900    33.782152   -512.00209    971.43531   -9067.4772   -8096.0419   0.84523576 
   41000    34.014366   -518.80735    978.11283   -9054.7693   -8076.6565   0.84523576 
   41100    34.177985     -460.989    982.81785   -9063.0764   -8080.2586   0.84523576 
   41200    33.820355   -525.92753    972.53388   -9066.9614   -8094.4275   0.84523576 
   41300     33.76588   -490.42081     970.9674   -9063.6113   -8092.6439   0.84523576 
   41400    33.992143   -484.54347    977.47379   -9047.7101   -8070.2363   0.84523576 
   41500    34.146267   -492.22305    981.90578   -9069.8496   -8087.9438   0.84523576 
   41600     33.91268   -533.51793    975.18878    -9062.216   -8087.0272   0.84523576 
   41700    34.535901   -522.51808    993.11003   -9049.4867   -8056.3767   0.84523576 
   41800    34.164771   -522.76067    982.43788   -9048.9922   -8066.5544   0.84523576 
   41900     34.25639   -492.66969    985.07244   -9025.8847   -8040.8122   0.84523576 
   42000    34.197676   -486.50387    983.38409   -9031.7103   -8048.3262   0.84523576 
   42100    34.862238   -510.60416    1002.4941    -9054.983   -8052.4889   0.84523576 
   42200    34.961413   -489.67813     1005.346   -9050.7538   -8045.4078   0.84523576 
   42300    34.934203   -475.05796    1004.5636   -9055.6586    -8051.095   0.84523576 
   42400    34.178788   -490.73583    982.84094   -9042.8674   -8060.0264   0.84523576 
   42500    34.860101   -483.49074    1002.4327     -9048.17   -8045.7373   0.84523576 
   42600    34.315201   -520.02822     986.7636   -9028.3538   -8041.5902   0.84523576 
   42700     34.17593   -408.72362    982.75875   -9033.0038    -8050.245   0.84523576 
   42800    34.163076   -458.50108    982.38912   -9030.2336   -8047.8445   0.84523576 
   42900    34.376035   -540.56765    988.51296   -9046.6253   -8058.1124   0.84523576 
   43000    34.871738   -526.18227    1002.7673   -9029.5748   -8026.8075   0.84523576 
   43100    34.532626   -406.49889    993.01586   -9038.7006   -8045.6847   0.84523576 
   43200    35.079877   -477.38185    1008.7525   -9026.7223   -8017.9697   0.84523576 
   43300    35.067766   -470.15962    1008.4043    -9029.732   -8021.3277   0.84523576 
   43400    35.068715   -536.05301    1008.4316   -9045.8632   -8037.4317   0.84523576 
   43500      34.9902   -437.01584    1006.1738   -9012.6157   -8006.4419   0.84523576 
   43600    34.419679   -468.08856    989.76796    -9005.347   -8015.5791   0.84523576 
   43700    35.222172   -447.23331    1012.8444   -9036.0637   -8023.2193   0.84523576 
   43800    35.562923   -477.64684    1022.6429   -9021.1332   -7998.4903   0.84523576 
   43900    34.550065   -454.21085    993.51732   -9047.4705   -8053.9532   0.84523576 
   44000    34.688454   -403.91722    997.49683   -9021.5929   -8024.0961   0.84523576 
   44100    34.701519   -438.70344    997.87252   -9010.5665    -8012.694   0.84523576 
   44200    35.284706   -486.09317    1014.6426    -9017.987   -8003.3444   0.84523576 
   44300    35.050343   -522.50609    1007.9033   -9018.6242   -8010.7209   0.84523576 
   44400    34.732101   -453.72235    998.75193   -9020.4702   -8021.7182   0.84523576 
   44500    34.991152   -551.73065    1006.2012   -9017.9856   -8011.7844   0.84523576 
   44600    36.093434   -419.88326    1037.8983   -9014.4589   -7976.5606   0.84523576 
   44700    35.305814   -467.72121    1015.2496   -9019.4164   -8004.1669   0.84523576 
   44800    35.249141   -488.10243    1013.6199   -9018.2842   -8004.6643   0.84523576 
   44900    35.548193   -445.29643    1022.2194   -9010.2297   -7988.0103   0.84523576 
   45000    35.054094   -454.31509    1008.0111   -8985.4895   -7977.4783   0.84523576 
   45100    35.895445   -509.33635    1032.2049   -9024.6851   -7992.4802   0.84523576 
   45200    35.621101   -524.31049    1024.3159   -9014.6625   -7990.3466   0.84523576 
   45300    35.293231    -456.5333    1014.8877   -8994.7368   -7979.8491   0.84523576 
   45400    35.946491   -493.41247    1033.6728   -8978.8496   -7945.1768   0.84523576 
   45500    35.687691   -445.34518    1026.2308   -9010.3897   -7984.1589   0.84523576 
   45600    35.838573   -524.40396    1030.5695   -9006.5718   -7976.0023   0.84523576 
   45700    35.891946   -484.86324    1032.1043   -8996.9649   -7964.8606   0.84523576 
   45800    35.426616   -500.68169    1018.7233   -8997.7311   -7979.0078   0.84523576 
   45900    35.963062   -472.63861    1034.1493   -8990.5294   -7956.3801   0.84523576 
   46000    35.232046   -471.84637    1013.1283   -9001.1269   -7987.9986   0.84523576 
   46100    35.896937   -523.32236    1032.2478    -9011.128   -7978.8801   0.84523576 
   46200    36.192874    -508.7658    1040.7577   -8994.2492   -7953.4915   0.84523576 
   46300    36.687185   -493.90073    1054.9721    -9004.275   -7949.3029   0.84523576 
   46400    35.986588   -493.09617    1034.8258   -9016.4046   -7981.5788   0.84523576 
   46500     35.98859   -470.82421    1034.8834   -8998.5318   -7963.6485   0.84523576 
   46600    36.126938   -473.12918    1038.8617   -9003.1598   -7964.2981   0.84523576 
   46700    36.252557   -404.26594     1042.474   -9002.4682   -7959.9943   0.84523576 
   46800    35.931007   -409.38904    1033.2275   -8990.1928   -7956.9653   0.84523576 
   46900    36.040804   -452.68278    1036.3848   -8991.1171   -7954.7323   0.84523576 
   47000    36.134519   -413.19069    1039.0797    -8979.249   -7940.1693   0.84523576 
   47100    36.281963   -455.23073    1043.3196   -9000.7031   -7957.3835   0.84523576 
   47200    35.917229   -492.40156    1032.8313    -9001.647   -7968.8157   0.84523576 
   47300     36.12147   -412.25101    1038.7044   -8963.3815    -7924.677   0.84523576 
   47400    35.994486   -486.75784    1035.0529    -9010.708   -7975.6551   0.84523576 
   47500    36.278538   -443.13484    1043.2211   -8984.6797   -7941.4586   0.84523576 
   47600    35.810738    -497.3827    1029.7691   -9000.7447   -7970.9756   0.84523576 
   47700    36.515683   -494.76858    1050.0404   -8996.6944    -7946.654   0.84523576 
   47800    36.997816   -533.09268    1063.9046    -8990.532   -7926.6274   0.84523576 
   47900    36.805074   -465.44012    1058.3621   -8978.2278   -7919.8658   0.84523576 
   48000     36.95118   -464.86536    1062.5635   -8982.2728   -7919.7093   0.84523576 
   48100    37.381386   -449.35747    1074.9344   -8973.0587   -7898.1243   0.84523576 
   48200    36.632342   -481.34941     1053.395   -8962.2176   -7908.8226   0.84523576 
   48300    36.572736    -462.6233     1051.681   -8976.3373   -7924.6563   0.84523576 
   48400    36.825129   -500.04216    1058.9388   -8980.6382   -7921.6994   0.84523576 
   48500     36.88824    -477.3136    1060.7536   -8982.4899   -7921.7363   0.84523576 
   48600    36.919751   -450.51409    1061.6597   -8965.6491   -7903.9894   0.84523576 
   48700    37.184249   -495.74985    1069.2656   -8970.2951   -7901.0295   0.84523576 
   48800    37.359257   -476.98575    1074.2981   -8975.7203   -7901.4221   0.84523576 
   48900    37.331248   -499.06799    1073.4927   -8968.6503   -7895.1577   0.84523576 
   49000    36.742185    -447.7381    1056.5537   -8962.2231   -7905.6694   0.84523576 
   49100    36.559846   -426.47639    1051.3104   -8955.8378   -7904.5275   0.84523576 
   49200    37.285082   -508.84928    1072.1651   -8964.8247   -7892.6595   0.84523576 
   49300    36.906526   -496.70565    1061.2794   -8965.1921   -7903.9126   0.84523576 
   49400    36.172779   -472.38978    1040.1799    -8944.153   -7903.9731   0.84523576 
   49500    36.890812   -444.29813    1060.8276   -8957.8918   -7897.0642   0.84523576 
   49600    37.251715     -459.476    1071.2056   -8968.9445   -7897.7389   0.84523576 
   49700    37.433869   -508.43654    1076.4437    -8945.457   -7869.0134   0.84523576 
   49800      37.5569   -494.09192    1079.9815   -8936.9718   -7856.9903   0.84523576 
   49900    37.823923   -444.05765      1087.66   -8961.5633   -7873.9033   0.84523576 
   50000    36.637383   -532.31509      1053.54   -8946.0533   -7892.5134   0.84523576 
   50100    37.722494   -504.28882    1084.7433   -8947.2275   -7862.4842   0.84523576 
   50200    37.412997   -537.41447    1075.8434   -8952.3597   -7876.5162   0.84523576 
   50300    38.066665   -532.29622    1094.6402   -8966.4123    -7871.772   0.84523576 
   50400    37.585388   -437.29996    1080.8007   -8966.1963   -7885.3956   0.84523576 
   50500    37.681688   -532.31496    1083.5699   -8969.4722   -7885.9023   0.84523576 
   50600    37.779873   -452.83656    1086.3933    -8960.797   -7874.4037   0.84523576 
   50700    37.693663   -520.70502    1083.9143   -8951.6664   -7867.7521   0.84523576 
   50800    37.859366   -482.28632    1088.6792   -8963.8034   -7875.1242   0.84523576 
   50900    37.871743   -416.50508    1089.0351   -8947.3633   -7858.3282   0.84523576 
   51000    37.563531   -474.73082    1080.1722   -8951.9889   -7871.8167   0.84523576 
   51100     37.79892   -506.63237     1086.941   -8944.5749   -7857.6339   0.84523576 
   51200    37.869606   -442.25443    1088.9736   -8928.2783   -7839.3047   0.84523576 
   51300    37.827538   -474.85389    1087.7639   -8945.5959    -7857.832   0.84523576 
   51400    38.611786   -467.03631    1110.3157   -8940.2986   -7829.9829   0.84523576 
   51500    37.622582   -443.00793    1081.8702   -8937.8762    -7856.006   0.84523576 
   51600    38.390373   -502.21788    1103.9487    -8942.778   -7838.8292   0.84523576 
   51700    38.295905   -423.36699    1101.2323   -8945.4596   -7844.2273   0.84523576 
   51800    38.677255   -470.92909    1112.1983   -8933.3646   -7821.1663   0.84523576 
   51900    38.355855   -466.74815    1102.9561    -8906.942   -7803.9858   0.84523576 
   52000    38.600861   -456.35557    1110.0015   -8939.4031   -7829.4016   0.84523576 
   52100    37.632153   -468.48482    1082.1455   -8928.6711   -7846.5256   0.84523576 
   52200    37.975409   -496.43141    1092.0161   -8934.6328   -7842.6167   0.84523576 
   52300     38.35884   -512.34433     1103.042   -8952.3103   -7849.2683   0.84523576 
   52400     38.65809   -438.82629    1111.6472   -8945.7012    -7834.054   0.84523576 
   52500    38.608125   -507.08992    1110.2104   -8955.8898   -7845.6793   0.84523576 
   52600    38.993771   -431.29251       1121.3     -8960.27     -7838.97   0.84523576 
   52700    38.740444   -480.03032    1114.0153   -8947.0438   -7833.0285   0.84523576 
   52800    38.453557    -457.7733    1105.7656    -8943.318   -7837.5524   0.84523576 
   52900    38.925025   -436.02397    1119.3231   -8925.9502   -7806.6271   0.84523576 
   53000    39.104367   -472.50168    1124.4803    -8941.035   -7816.5547   0.84523576 
   53100    39.356499   -442.22557    1131.7305   -8919.8632   -7788.1327   0.84523576 
   53200    39.376849   -422.00871    1132.3157   -8929.0049   -7796.6891   0.84523576 
   53300    39.176835   -477.21856    1126.5642   -8943.2848   -7816.7206   0.84523576 
   53400    39.048753    -479.1968     1122.881   -8940.8722   -7817.9912   0.84523576 
   53500    39.507367   -447.36697    1136.0689   -8926.9165   -7790.8476   0.84523576 
   53600    38.728745   -428.61114    1113.6789   -8921.7543   -7808.0754   0.84523576 
   53700    39.075168   -476.54458    1123.6406   -8917.9577   -7794.3171   0.84523576 
   53800     39.28541   -426.32428    1129.6863   -8896.7095   -7767.0232   0.84523576 
   53900    38.956916   -449.44104    1120.2402   -8889.0954   -7768.8552   0.84523576 
   54000    39.567093   -448.10008    1137.7864   -8921.8469   -7784.0605   0.84523576 
   54100    39.490532   -440.39073    1135.5848   -8909.5172   -7773.9324   0.84523576 
   54200    39.052672   -390.11665    1122.9937   -8930.4186   -7807.4249   0.84523576 
   54300    39.790963   -449.01404     1144.224   -8901.3631   -7757.1392   0.84523576 
   54400    39.410206   -470.31889    1133.2749   -8919.7659   -7786.4909   0.84523576 
   54500    38.926126   -522.33697    1119.3548   -8898.0303   -7778.6754   0.84523576 
   54600    38.899444   -479.75119    1118.5875   -8897.1679   -7778.5803   0.84523576 
   54700    39.133007   -476.34607    1125.3038   -8924.4643   -7799.1605   0.84523576 
   54800    39.368461   -436.28357    1132.0745   -8922.3048   -7790.2303   0.84523576 
   54900    39.564295   -473.19908    1137.7059   -8930.1423   -7792.4364   0.84523576 
   55000    39.639262   -485.89362    1139.8616   -8914.0318   -7774.1701   0.84523576 
   55100    39.275823   -473.04108    1129.4106   -8910.1844   -7780.7738   0.84523576 
   55200    40.128193   -463.60703    1153.9213   -8886.9848   -7733.0635   0.84523576 
   55300    39.723899   -476.83366    1142.2954   -8915.1864    -7772.891   0.84523576 
   55400     38.96223     -520.904     1120.393    -8900.588    -7780.195   0.84523576 
   55500    39.804268   -499.92092    1144.6065   -8918.4082   -7773.8017   0.84523576 
   55600    39.564621   -437.80808    1137.7153    -8917.827   -7780.1117   0.84523576 
   55700    39.969128   -506.10639    1149.3472   -8916.6547   -7767.3075   0.84523576 
   55800    39.834833   -442.69781    1145.4855   -8913.2117   -7767.7262   0.84523576 
   55900    39.867865    -429.9464    1146.4353   -8916.0339   -7769.5986   0.84523576 
   56000    40.412388   -496.18314    1162.0936   -8916.9786   -7754.8851   0.84523576 
   56100      39.6996   -536.39772    1141.5967   -8917.3361   -7775.7394   0.84523576 
   56200    39.934497   -454.13782    1148.3514   -8909.7106   -7761.3592   0.84523576 
   56300    39.736949   -492.45127    1142.6707   -8909.2001   -7766.5293   0.84523576 
   56400     40.06655   -513.92359    1152.1487   -8882.8496   -7730.7009   0.84523576 
   56500     40.19306   -410.77251    1155.7866    -8917.889   -7762.1024   0.84523576 
   56600    39.569152   -395.40533    1137.8456    -8906.672   -7768.8264   0.84523576 
   56700    39.536454   -445.76173    1136.9053   -8911.5108   -7774.6055   0.84523576 
   56800    40.295644   -434.42572    1158.7365    -8895.509   -7736.7725   0.84523576 
   56900    39.713789   -520.69895    1142.0047   -8888.1625   -7746.1577   0.84523576 
   57000    40.831084   -448.23636    1174.1335   -8887.2384   -7713.1049   0.84523576 
   57100    40.985184   -437.13137    1178.5648   -8869.4658    -7690.901   0.84523576 
   57200    40.158999   -442.51366    1154.8071   -8895.0184   -7740.2112   0.84523576 
   57300    40.105557   -415.58741    1153.2704    -8885.856   -7732.5857   0.84523576 
   57400    39.973549   -480.53042    1149.4744   -8899.4872   -7750.0128   0.84523576 
   57500    39.633971   -395.02839    1139.7095   -8901.2344   -7761.5249   0.84523576 
   57600    41.106057   -418.27004    1182.0406   -8885.2615   -7703.2209   0.84523576 
   57700    40.771184   -407.07476    1172.4111   -8869.4939   -7697.0829   0.84523576 
   57800    40.204606   -431.50817    1156.1186   -8883.3661   -7727.2475   0.84523576 
   57900    40.674736     -383.866    1169.6376   -8888.7311   -7719.0935   0.84523576 
   58000    40.663754    -442.4147    1169.3218   -8868.7009   -7699.3791   0.84523576 
   58100    40.742213   -432.95504     1171.578   -8871.5423   -7699.9644   0.84523576 
   58200    40.458258   -456.84274    1163.4126   -8868.7781   -7705.3655   0.84523576 
   58300     41.10275    -443.9713    1181.9455   -8877.2217   -7695.2762   0.84523576 
   58400    40.481497   -423.23389    1164.0809   -8882.2067   -7718.1258   0.84523576 
   58500    41.181426   -462.56397    1184.2079   -8868.5976   -7684.3897   0.84523576 
   58600    41.708315   -423.11259    1199.3591   -8858.2349   -7658.8759   0.84523576 
   58700    41.033915   -516.74025    1179.9661   -8880.7435   -7700.7774   0.84523576 
   58800    41.357217   -421.17107    1189.2629   -8869.0808   -7679.8178   0.84523576 
   58900    41.253023   -474.74176    1186.2667   -8865.2558    -7678.989   0.84523576 
   59000    41.030264   -437.62722    1179.8611   -8861.5175   -7681.6564   0.84523576 
   59100    40.973756   -448.50334    1178.2362   -8892.2382    -7714.002   0.84523576 
   59200    40.915348   -480.17407    1176.5566   -8878.3293   -7701.7727   0.84523576 
   59300    40.711447   -457.66816    1170.6933   -8867.9359   -7697.2426   0.84523576 
   59400    41.117275   -389.74374    1182.3632   -8837.0207   -7654.6574   0.84523576 
   59500    41.755953   -482.14266    1200.7289   -8862.3139   -7661.5849   0.84523576 
   59600    41.768818   -462.74074    1201.0989   -8858.6851   -7657.5862   0.84523576 
   59700    40.936227   -427.41624     1177.157   -8871.3013   -7694.1443   0.84523576 
   59800    40.328958   -458.74077    1159.6945   -8873.7045   -7714.0101   0.84523576 
   59900    41.139935   -504.06446    1183.0148   -8864.4946   -7681.4798   0.84523576 
   60000    40.987771    -442.8724    1178.6392   -8861.4264   -7682.7872   0.84523576 
   60100    40.794377   -488.87211     1173.078   -8868.2207   -7695.1427   0.84523576 
   60200    41.404542   -435.06031    1190.6238   -8863.2498    -7672.626   0.84523576 
   60300    41.930633   -406.66952     1205.752   -8868.2777   -7662.5257   0.84523576 
   60400    40.936933   -360.43213    1177.1773   -8893.8978   -7716.7205   0.84523576 
   60500    41.541023   -368.67917    1194.5485   -8861.7681   -7667.2196   0.84523576 
   60600    41.538795    -404.8425    1194.4844   -8860.4488   -7665.9644   0.84523576 
   60700     41.97755   -495.11879    1207.1012   -8875.2647   -7668.1636   0.84523576 
   60800    41.887883    -449.6271    1204.5227   -8860.5074   -7655.9847   0.84523576 
   60900    41.843982   -475.79864    1203.2603   -8847.0451   -7643.7848   0.84523576 
   61000    41.309983   -397.60745    1187.9047   -8855.0787    -7667.174   0.84523576 
   61100    42.050665   -346.42981    1209.2036   -8847.3904   -7638.1868   0.84523576 
   61200    41.871283   -423.03298    1204.0454   -8878.7086   -7674.6633   0.84523576 
   61300    41.426668   -393.54394    1191.2601    -8863.727    -7672.467   0.84523576 
   61400    42.005719   -403.98256    1207.9112   -8869.7963   -7661.8851   0.84523576 
   61500    42.342703   -374.97747    1217.6015   -8868.0892   -7650.4878   0.84523576 
   61600    41.504434   -389.03664    1193.4963   -8859.6689   -7666.1727   0.84523576 
   61700    41.353893   -386.72834    1189.1674    -8865.233   -7676.0657   0.84523576 
   61800    41.371046   -499.33427    1189.6606    -8860.325   -7670.6643   0.84523576 
   61900    41.839909   -347.31531    1203.1432   -8853.3459   -7650.2028   0.84523576 
   62000    41.833702   -441.39688    1202.9647    -8837.224   -7634.2593   0.84523576 
   62100    42.112983   -425.98223    1210.9957   -8819.3811   -7608.3855   0.84523576 
   62200    42.405739   -490.63109    1219.4141   -8850.0727   -7630.6586   0.84523576 
   62300    43.067004   -392.93625    1238.4294   -8832.4641   -7594.0347   0.84523576 
   62400    41.799929    -472.9667    1201.9935   -8826.1831   -7624.1896   0.84523576 
   62500    42.170415   -410.20319    1212.6472   -8825.8249   -7613.1778   0.84523576 
   62600    42.706828   -472.40662    1228.0722   -8839.5968   -7611.5247   0.84523576 
   62700    42.163721   -455.74519    1212.4547   -8854.0851   -7641.6304   0.84523576 
   62800    41.462772   -481.76909    1192.2983   -8824.7987   -7632.5004   0.84523576 
   62900    41.930236   -461.95418    1205.7406   -8822.5487    -7616.808   0.84523576 
   63000    41.480553   -418.36028    1192.8096   -8825.4939   -7632.6843   0.84523576 
   63100    41.845667   -385.81477    1203.3087   -8818.3556   -7615.0468   0.84523576 
   63200     42.37403   -414.64069    1218.5023   -8811.3724   -7592.8701   0.84523576 
   63300    41.424938   -437.53267    1191.2103   -8824.3102   -7633.0999   0.84523576 
   63400    41.500832   -467.46512    1193.3927   -8824.7351   -7631.3424   0.84523576 
   63500    43.093256   -481.00966    1239.1843    -8827.348   -7588.1638   0.84523576 
   63600    42.985525   -391.57899    1236.0864   -8833.6788   -7597.5924   0.84523576 
   63700    41.917477   -449.60446    1205.3737   -8843.6366   -7638.2629   0.84523576 
   63800    42.450555   -439.49333    1220.7028   -8838.8651   -7618.1622   0.84523576 
   63900    42.075632   -462.46564    1209.9216   -8811.8022   -7601.8806   0.84523576 
   64000    42.645424   -426.53234    1226.3065   -8818.8496   -7592.5431   0.84523576 
   64100    42.710366   -484.29331    1228.1739    -8810.174   -7582.0001   0.84523576 
   64200    42.492586   -443.63388    1221.9115    -8804.879   -7582.9675   0.84523576 
   64300    42.628479   -398.00828    1225.8192   -8813.8521   -7588.0329   0.84523576 
   64400     42.96627   -437.16209    1235.5327    -8832.429   -7596.8963   0.84523576 
   64500    42.421101   -430.50283    1219.8559   -8835.9051   -7616.0492   0.84523576 
   64600    43.058351   -439.47975    1238.1806   -8844.1965    -7606.016   0.84523576 
   64700    42.651336   -387.44337    1226.4765    -8836.089   -7609.6125   0.84523576 
   64800    43.098984    -396.7749     1239.349   -8821.8367   -7582.4877   0.84523576 
   64900    42.951144   -363.43413    1235.0977   -8821.2427    -7586.145   0.84523576 
   65000    42.040673   -410.51993    1208.9163   -8831.2987   -7622.3824   0.84523576 
   65100    42.188156   -415.49361    1213.1573   -8843.9093    -7630.752   0.84523576 
   65200    42.805563   -434.14163    1230.9114   -8826.0368   -7595.1254   0.84523576 
   65300    43.121207   -430.75218     1239.988   -8809.1856   -7569.1976   0.84523576 
   65400    43.658497   -438.00182    1255.4383   -8812.6076   -7557.1693   0.84523576 
   65500    43.180364   -426.86896    1241.6891   -8815.2976   -7573.6084   0.84523576 
   65600    43.019106   -445.72515     1237.052   -8809.1631    -7572.111   0.84523576 
   65700    43.516515   -460.17368    1251.3555   -8823.3322   -7571.9768   0.84523576 
   65800     43.55275   -394.97507    1252.3974   -8813.0791   -7560.6817   0.84523576 
   65900    44.127167   -448.91712    1268.9153   -8811.9676   -7543.0523   0.84523576 
   66000    43.645597   -416.73254    1255.0673   -8817.6943    -7562.627   0.84523576 
   66100    43.451538   -371.26644     1249.487   -8796.6402   -7547.1533   0.84523576 
   66200    43.001499   -414.87985    1236.5457   -8791.3552   -7554.8095   0.84523576 
   66300     43.20712   -398.42369    1242.4585   -8814.9486   -7572.4901   0.84523576 
   66400    42.393182   -422.73824     1219.053   -8802.4817   -7583.4287   0.84523576 
   66500    43.692696   -508.46124    1256.4217    -8793.834   -7537.4123   0.84523576 
   66600    44.671469   -509.28787    1284.5672   -8789.3867   -7504.8195   0.84523576 
   66700    43.670252   -500.18762    1255.7763   -8789.1159   -7533.3396   0.84523576 
   66800    43.716138   -412.24321    1257.0958   -8808.7499   -7551.6541   0.84523576 
   66900    43.659296   -417.39644    1255.4612   -8761.6584   -7506.1971   0.84523576 
   67000    43.536371   -455.14089    1251.9264   -8801.7296   -7549.8032   0.84523576 
   67100     43.46411   -479.80714    1249.8485   -8790.7089   -7540.8604   0.84523576 
   67200    44.114706   -428.36595     1268.557     -8812.84   -7544.2831   0.84523576 
   67300    44.296907   -415.26875    1273.7963   -8787.6715   -7513.8752   0.84523576 
   67400    44.913864    -413.8899    1291.5374   -8808.6645   -7517.1271   0.84523576 
   67500    44.193575   -405.26324    1270.8249   -8772.8974   -7502.0725   0.84523576 
   67600    43.974642   -448.46999    1264.5293   -8777.2756   -7512.7463   0.84523576 
   67700    43.756044   -448.25987    1258.2433   -8813.3949   -7555.1516   0.84523576 
   67800    43.393892   -370.29452    1247.8293   -8802.1533    -7554.324   0.84523576 
   67900    44.422844   -408.87277    1277.4177    -8804.778   -7527.3603   0.84523576 
   68000    44.665354   -393.33602    1284.3913   -8788.4309   -7504.0396   0.84523576 
   68100    43.566777   -394.87934    1252.8008   -8776.8042   -7524.0034   0.84523576 
   68200      44.0488   -319.77995    1266.6618   -8770.7972   -7504.1355   0.84523576 
   68300    43.651646   -414.13934    1255.2413   -8798.1591   -7542.9179   0.84523576 
   68400     44.06307   -318.24419    1267.0721   -8764.6441   -7497.5719   0.84523576 
   68500    43.390435   -412.93889    1247.7299    -8798.261   -7550.5311   0.84523576 
   68600    43.789695   -444.30552     1259.211   -8780.5628   -7521.3518   0.84523576 
   68700    44.875107   -372.55579    1290.4229   -8783.0358   -7492.6129   0.84523576 
   68800    44.522041   -454.49716    1280.2702   -8754.2544   -7473.9842   0.84523576 
   68900     44.22142   -381.09628    1271.6256   -8784.6377   -7513.0121   0.84523576 
   69000    44.272349   -462.27599    1273.0901   -8780.0836   -7506.9935   0.84523576 
   69100    44.576522   -450.20656    1281.8369   -8793.7038    -7511.867   0.84523576 
   69200    43.556878   -388.74687    1252.5161   -8794.0765   -7541.5604   0.84523576 
   69300    44.637301   -405.21185    1283.5846   -8778.0224   -7494.4378   0.84523576 
   69400    43.742995   -407.24664    1257.8681   -8798.0303   -7540.1622   0.84523576 
   69500    45.109098     -371.493    1297.1516   -8769.6295   -7472.4779   0.84523576 
   69600    43.919247   -428.64343    1262.9363   -8770.6367   -7507.7003   0.84523576 
   69700    44.286416   -407.85234    1273.4946   -8749.1617    -7475.667   0.84523576 
   69800    44.812147   -411.11652    1288.6125   -8779.9117   -7491.2992   0.84523576 
   69900    44.918349   -405.51799    1291.6664   -8765.9481   -7474.2817   0.84523576 
   70000    44.492862   -405.32444    1279.4312   -8765.3179   -7485.8867   0.84523576 
   70100    44.284359   -482.87025    1273.4355   -8786.9568   -7513.5213   0.84523576 
   70200    45.185163   -366.29502    1299.3389   -8794.5533   -7495.2144   0.84523576 
   70300    45.619895   -390.14415      1311.84   -8779.1369    -7467.297   0.84523576 
   70400    44.401238   -422.87305    1276.7964    -8771.007   -7494.2106   0.84523576 
   70500     45.00065   -412.55566     1294.033   -8759.6447   -7465.6116   0.84523576 
   70600    44.414436    -363.6949     1277.176   -8752.7396   -7475.5636   0.84523576 
   70700    44.373759   -425.65811    1276.0063   -8773.9981   -7497.9919   0.84523576 
   70800    45.069137    -420.2263    1296.0025   -8756.1829   -7460.1804   0.84523576 
   70900     45.34768   -433.15228    1304.0122   -8750.9792    -7446.967   0.84523576 
   71000    44.801988   -416.95841    1288.3204    -8749.968   -7461.6476   0.84523576 
   71100     45.27468   -470.47653     1301.913   -8768.4292   -7466.5162   0.84523576 
   71200    44.537305   -525.65826    1280.7092   -8775.0242    -7494.315   0.84523576 
   71300    46.202633   -457.65309    1328.5971   -8794.1649   -7465.5678   0.84523576 
   71400    44.186038   -443.02014    1270.6082   -8789.6217   -7519.0136   0.84523576 
   71500    46.250018   -400.46037    1329.9597   -8794.7008    -7464.741   0.84523576 
   71600    44.647759   -456.81977    1283.8854   -8759.8265   -7475.9412   0.84523576 
   71700    44.657279   -355.85558    1284.1591   -8768.1568   -7483.9977   0.84523576 
   71800    45.134572   -439.11111    1297.8841   -8776.7757   -7478.8916   0.84523576 
   71900    45.261917   -444.26734     1301.546   -8755.9039   -7454.3579   0.84523576 
   72000    45.674263    -441.9464    1313.4034    -8780.743   -7467.3396   0.84523576 
   72100    45.660046   -444.83557    1312.9946   -8786.8155   -7473.8209   0.84523576 
   72200    46.098159   -431.74421    1325.5929   -8764.5843   -7438.9915   0.84523576 
   72300    46.053828    -489.2161    1324.3181   -8768.6663   -7444.3482   0.84523576 
   72400    45.774894   -422.74431    1316.2971   -8762.1269   -7445.8298   0.84523576 
   72500    45.906883   -378.68225    1320.0926   -8760.4008   -7440.3083   0.84523576 
   72600    45.148338   -469.33644    1298.2799    -8747.738    -7449.458   0.84523576 
   72700    44.591382   -508.74267    1282.2642   -8771.7016   -7489.4374   0.84523576 
   72800    45.603481    -405.5946     1311.368   -8759.2871   -7447.9191   0.84523576 
   72900    45.111805   -461.98473    1297.2294   -8759.4232   -7462.1938   0.84523576 
   73000    46.236278   -453.70447    1329.5646   -8752.0221   -7422.4575   0.84523576 
   73100     46.48528   -403.70099    1336.7249   -8742.3688   -7405.6439   0.84523576 
   73200    45.881237   -385.95438    1319.3551    -8745.896   -7426.5409   0.84523576 
   73300    47.098959   -402.68951    1354.3718   -8729.6918   -7375.3201   0.84523576 
   73400     46.67744    -474.8162    1342.2506   -8761.3673   -7419.1167   0.84523576 
   73500    46.744884    -448.4535      1344.19   -8741.3389   -7397.1489   0.84523576 
   73600    45.940936   -417.65891    1321.0718   -8748.9693   -7427.8976   0.84523576 
   73700    47.070941   -497.13351    1353.5661   -8743.4169   -7389.8508   0.84523576 
   73800     46.42541   -439.98161    1335.0033   -8752.6632     -7417.66   0.84523576 
   73900    45.762612   -407.22723    1315.9439   -8757.9246   -7441.9806   0.84523576 
   74000    45.369208   -344.44818    1304.6313   -8757.4638   -7452.8326   0.84523576 
   74100    46.420138   -406.76354    1334.8517   -8777.8891   -7443.0374   0.84523576 
   74200    46.326228   -407.50565    1332.1512   -8769.7252    -7437.574   0.84523576 
   74300    46.854464   -460.53679    1347.3411    -8721.428   -7374.0869   0.84523576 
   74400     46.06562   -439.17174    1324.6572   -8710.0795   -7385.4223   0.84523576 
   74500    46.040075   -368.86616    1323.9226   -8729.8114   -7405.8888   0.84523576 
   74600    46.575924   -414.05377    1339.3314   -8745.4161   -7406.0847   0.84523576 
   74700      47.3571   -412.60855    1361.7948   -8716.0793   -7354.2845   0.84523576 
   74800    46.492208   -434.53994    1336.9241   -8708.3645   -7371.4403   0.84523576 
   74900     47.50572   -387.48011    1366.0685   -8743.3862   -7377.3177   0.84523576 
   75000    46.682444    -408.1816    1342.3945   -8728.9688   -7386.5743   0.84523576 
   75100    46.458604   -458.09195    1335.9578    -8724.586   -7388.6282   0.84523576 
   75200    46.606138   -427.67184    1340.2003   -8737.0762   -7396.8759   0.84523576 
   75300    46.745565   -420.04289    1344.2096   -8726.7076    -7382.498   0.84523576 
   75400     48.48712   -407.44619    1394.2895   -8749.3268   -7355.0373   0.84523576 
   75500    47.550371   -422.65668    1367.3525   -8741.9739   -7374.6214   0.84523576 
   75600    46.214194    -430.3919    1328.9296   -8727.6342   -7398.7046   0.84523576 
   75700    46.620871   -432.44619    1340.6239   -8740.6649    -7400.041   0.84523576 
   75800    47.228804   -483.54279    1358.1056   -8729.1694   -7371.0639   0.84523576 
   75900    47.444645   -447.50665    1364.3123    -8721.612   -7357.2997   0.84523576 
   76000    47.516082   -393.60614    1366.3665   -8709.8482   -7343.4817   0.84523576 
   76100    47.674381   -442.42386    1370.9185   -8757.0647   -7386.1461   0.84523576 
   76200    46.952731   -425.21079    1350.1668   -8720.3523   -7370.1854   0.84523576 
   76300    47.656778   -412.12018    1370.4123   -8730.2286   -7359.8163   0.84523576 
   76400    46.947269   -396.15802    1350.0098   -8720.5432   -7370.5334   0.84523576 
   76500    47.037746    -434.3424    1352.6115   -8705.5846   -7352.9731   0.84523576 
   76600     46.82864   -422.51512    1346.5985   -8724.7843   -7378.1858   0.84523576 
   76700    46.632787   -396.81069    1340.9666   -8729.7598   -7388.7932   0.84523576 
   76800    47.477398   -477.62666    1365.2541   -8730.1193   -7364.8652   0.84523576 
   76900    46.517322   -448.10953    1337.6463   -8716.4205   -7378.7742   0.84523576 
   77000    47.476728   -423.18989    1365.2348   -8699.1368    -7333.902   0.84523576 
   77100    48.872086   -424.94687    1405.3596   -8726.0309   -7320.6714   0.84523576 
   77200    46.505783   -430.45781    1337.3145   -8691.5862   -7354.2717   0.84523576 
   77300    47.234363    -462.5284    1358.2654    -8728.272   -7370.0066   0.84523576 
   77400    46.759538   -463.60434    1344.6114   -8710.7306   -7366.1192   0.84523576 
   77500    47.313792   -470.92478    1360.5495   -8705.5192   -7344.9697   0.84523576 
   77600    47.440441   -427.84049    1364.1914   -8704.9067   -7340.7154   0.84523576 
   77700    47.775925   -398.91882    1373.8385   -8683.6133   -7309.7748   0.84523576 
   77800    47.431111   -409.94063    1363.9231   -8692.7015   -7328.7784   0.84523576 
   77900    47.706551   -357.21425    1371.8436   -8717.5073   -7345.6637   0.84523576 
   78000    47.556358   -397.74113    1367.5247   -8703.7692   -7336.2445   0.84523576 
   78100    48.178148   -378.80104    1385.4048   -8699.8686   -7314.4638   0.84523576 
   78200    47.439256   -441.79662    1364.1573   -8696.2102   -7332.0529   0.84523576 
   78300    47.392241   -436.50813    1362.8053   -8709.3618   -7346.5564   0.84523576 
   78400    47.441228   -435.03949     1364.214   -8692.4018   -7328.1878   0.84523576 
   78500    48.276917    -417.4354     1388.245   -8700.4176   -7312.1727   0.84523576 
   78600    48.160578   -442.13129    1384.8995   -8713.7602   -7328.8607   0.84523576 
   78700    47.537186   -430.69591    1366.9734   -8693.1501   -7326.1767   0.84523576 
   78800    47.756587    -451.1129    1373.2824   -8739.3997   -7366.1173   0.84523576 
   78900    47.782004    -462.0406    1374.0133   -8697.6738   -7323.6605   0.84523576 
   79000    47.756476   -396.31604    1373.2792   -8705.9957   -7332.7164   0.84523576 
   79100    48.269179   -438.91419    1388.0225   -8712.9437   -7324.9212   0.84523576 
   79200    47.889769    -442.6806    1377.1122   -8730.4304   -7353.3183   0.84523576 
   79300    48.748567   -415.47538    1401.8077   -8723.0343   -7321.2266   0.84523576 
   79400    47.613788    -393.0726    1369.1761   -8700.7776   -7331.6015   0.84523576 
   79500    47.653682   -370.14085    1370.3233   -8688.8263    -7318.503   0.84523576 
   79600     48.95859   -454.58239    1407.8471   -8710.9333   -7303.0862   0.84523576 
   79700    46.536115   -441.11761    1338.1867   -8692.7924   -7354.6057   0.84523576 
   79800    48.220445   -442.61387    1386.6211   -8715.1942   -7328.5731   0.84523576 
   79900     48.19008   -404.83952    1385.7479   -8698.0877   -7312.3398   0.84523576 
   80000    48.101804   -341.86605    1383.2094   -8658.0775    -7274.868   0.84523576 
   80100     48.45499   -423.32274    1393.3656   -8695.1389   -7301.7733   0.84523576 
   80200    48.068116   -416.32931    1382.2407   -8668.5586   -7286.3179   0.84523576 
   80300    48.556257   -491.40062    1396.2776   -8696.8937   -7300.6161   0.84523576 
   80400    47.377485   -417.54745     1362.381   -8707.1308   -7344.7497   0.84523576 
   80500     48.21571   -394.32233    1386.4849   -8684.7553   -7298.2704   0.84523576 
   80600    48.367809   -479.88404    1390.8587   -8704.7072   -7313.8486   0.84523576 
   80700    48.262214   -371.49212    1387.8222   -8684.9991    -7297.177   0.84523576 
   80800    48.295661   -463.39337     1388.784   -8679.3879   -7290.6039   0.84523576 
   80900    48.965985   -448.77868    1408.0597   -8672.7398   -7264.6801   0.84523576 
   81000     49.27941   -402.19397    1417.0725   -8690.5295    -7273.457   0.84523576 
   81100    49.135309   -388.93234    1412.9288   -8671.9006   -7258.9718   0.84523576 
   81200    48.344919   -468.74692    1390.2004   -8672.3491   -7282.1487   0.84523576 
   81300    48.858489   -397.74253    1404.9686   -8673.4652   -7268.4967   0.84523576 
   81400    49.159237   -378.40805    1413.6168   -8651.9377   -7238.3208   0.84523576 
   81500    48.645264   -391.38338    1398.8371   -8641.1734   -7242.3363   0.84523576 
   81600    48.363882   -469.76907    1390.7457   -8668.7965   -7278.0507   0.84523576 
   81700    48.712956   -414.18706    1400.7837   -8687.7634   -7286.9798   0.84523576 
   81800    48.083877   -419.11929    1382.6939   -8668.0562   -7285.3622   0.84523576 
   81900    49.034059   -444.42698    1410.0173    -8658.621   -7248.6038   0.84523576 
   82000    48.622698   -392.57425    1398.1882   -8689.0167   -7290.8285   0.84523576 
   82100    48.671963   -500.57063    1399.6049   -8673.7865   -7274.1817   0.84523576 
   82200    48.433706   -478.06184    1392.7536   -8674.3463   -7281.5928   0.84523576 
   82300     49.17945   -393.45418    1414.1981   -8628.5893   -7214.3912   0.84523576 
   82400    50.060399   -388.25055    1439.5305   -8655.6977   -7216.1672   0.84523576 
   82500    48.765198   -484.87302    1402.2859   -8679.3757   -7277.0898   0.84523576 
   82600    48.974169   -401.20242    1408.2951   -8679.9347   -7271.6396   0.84523576 
   82700    48.284432   -425.62194    1388.4611   -8681.8709   -7293.4098   0.84523576 
   82800    49.694045    -469.3202    1428.9957   -8677.9157     -7248.92   0.84523576 
   82900    49.057447   -483.51514    1410.6898   -8667.1059   -7256.4161   0.84523576 
   83000    49.956704    -451.8791    1436.5487   -8667.4342   -7230.8855   0.84523576 
   83100    49.710072   -469.39068    1429.4566   -8662.3735   -7232.9169   0.84523576 
   83200    48.581638   -441.78114    1397.0075    -8664.473   -7267.4655   0.84523576 
   83300    49.672833   -406.24929    1428.3857   -8657.6756   -7229.2899   0.84523576 
   83400    49.581832   -395.13067    1425.7689   -8666.0335   -7240.2646   0.84523576 
   83500    49.402809   -380.23812     1420.621   -8673.0233   -7252.4023   0.84523576 
   83600    50.056381   -473.81295     1439.415   -8667.8484   -7228.4334   0.84523576 
   83700    49.545509   -420.13955    1424.7245   -8663.5553   -7238.8309   0.84523576 
   83800    49.777692   -448.00894    1431.4011   -8650.2179   -7218.8168   0.84523576 
   83900    49.523729   -475.84153    1424.0981   -8648.7981      -7224.7   0.84523576 
   84000    49.847355   -461.12353    1433.4043   -8683.5755   -7250.1712   0.84523576 
   84100     49.09886   -416.63075    1411.8807   -8637.3568   -7225.4762   0.84523576 
   84200    49.105163   -395.52404    1412.0619   -8653.6367   -7241.5747   0.84523576 
   84300    50.232995   -427.94522    1444.4937   -8677.1183   -7232.6246   0.84523576 
   84400    50.001313   -343.34961    1437.8315   -8655.6243   -7217.7928   0.84523576 
   84500     49.85702   -506.03823    1433.6822    -8643.342   -7209.6598   0.84523576 
   84600     50.46427   -416.99183    1451.1442   -8660.5953   -7209.4511   0.84523576 
   84700    50.482698   -388.83076    1451.6741   -8659.8826   -7208.2084   0.84523576 
   84800    50.499032   -439.22591    1452.1438   -8701.4941   -7249.3503   0.84523576 
   84900     50.78023   -430.83654    1460.2299   -8685.9336   -7225.7037   0.84523576 
   85000    49.879431   -510.02868    1434.3267   -8652.3411   -7218.0145   0.84523576 
   85100    49.809853   -407.08762    1432.3259   -8641.8658   -7209.5399   0.84523576 
   85200    49.653068   -515.21895    1427.8174   -8659.6545   -7231.8371   0.84523576 
   85300    50.114533   -479.13386    1441.0872    -8643.441   -7202.3538   0.84523576 
   85400    48.907828   -435.79563    1406.3874   -8643.2649   -7236.8776   0.84523576 
   85500    50.035177   -486.27114    1438.8053   -8661.3966   -7222.5913   0.84523576 
   85600    49.895474   -392.21251     1434.788   -8650.8148   -7216.0268   0.84523576 
   85700    50.659507   -404.96079    1456.7584   -8638.9341   -7182.1757   0.84523576 
   85800    51.425175   -429.93815    1478.7759   -8645.2819    -7166.506   0.84523576 
   85900    50.283788   -407.38568    1445.9543   -8606.0794   -7160.1251   0.84523576 
   86000      50.9059   -402.78285    1463.8437   -8628.4059   -7164.5622   0.84523576 
[...]
   96300    53.727685   -418.43481    1544.9866   -8571.8119   -7026.8253   0.84523576 
   96400    53.973781   -414.24957    1552.0633   -8552.0247   -6999.9614   0.84523576 
   96500     54.30239   -463.50723    1561.5127   -8579.7604   -7018.2477   0.84523576 
   96600     54.35918   -456.93896    1563.1458   -8528.3652   -6965.2195   0.84523576 
   96700    54.286118   -494.35018    1561.0448   -8528.9791   -6967.9343   0.84523576 
   96800     53.28605   -417.66378     1532.287   -8574.6183   -7042.3313   0.84523576 
   96900    54.005757   -445.78146    1552.9828   -8545.3674   -6992.3847   0.84523576 
   97000      54.4709   -458.97334    1566.3584   -8579.3378   -7012.9794   0.84523576 
   97100    54.287763   -374.24408    1561.0921   -8578.6003   -7017.5082   0.84523576 
   97200    53.272596    -433.1521    1531.9001   -8532.1626   -7000.2625   0.84523576 
   97300    53.822297   -388.40918    1547.7072   -8546.5256   -6998.8184   0.84523576 
   97400    53.478772   -371.84072    1537.8289   -8517.4808   -6979.6519   0.84523576 
   97500    53.212891   -476.91238    1530.1832   -8570.2913   -7040.1081   0.84523576 
   97600    54.387045   -402.67352     1563.947   -8599.7815   -7035.8344   0.84523576 
   97700    54.198209   -410.24806    1558.5169   -8554.2805   -6995.7637   0.84523576 
   97800    54.045197   -426.35116    1554.1169   -8538.6473   -6984.5304   0.84523576 
   97900    53.124598   -370.96034    1527.6443   -8537.4316   -7009.7873   0.84523576 
   98000    54.939856   -429.31557    1579.8436   -8565.3281   -6985.4845   0.84523576 
   98100    53.283305   -456.02558     1532.208   -8520.4987   -6988.2907   0.84523576 
   98200    54.326863   -450.67282    1562.2165   -8559.4507   -6997.2342   0.84523576 
   98300    55.462509   -440.29789     1594.873   -8504.7499   -6909.8769   0.84523576 
   98400    53.703648    -380.1735    1544.2954   -8512.9125   -6968.6171   0.84523576 
   98500    54.056136   -361.60908    1554.4315   -8511.7439   -6957.3125   0.84523576 
   98600     55.49351   -360.36901    1595.7644   -8537.4496   -6941.6851   0.84523576 
   98700    54.010945   -393.05108    1553.1319    -8510.259   -6957.1271   0.84523576 
   98800    54.121728   -462.41005    1556.3176   -8529.3751   -6973.0574   0.84523576 
   98900     54.56835   -421.43384    1569.1606   -8517.3115   -6948.1508   0.84523576 
   99000    55.429777   -420.02833    1593.9317   -8496.5988   -6902.6671   0.84523576 
   99100    53.772718   -438.81257    1546.2815   -8520.2461   -6973.9646   0.84523576 
   99200    54.878519   -448.41784    1578.0798   -8531.1199   -6953.0401   0.84523576 
   99300    54.452624    -474.4822    1565.8328   -8556.7915   -6990.9587   0.84523576 
   99400    54.611884   -376.50549    1570.4125   -8559.7096   -6989.2971   0.84523576 
   99500    54.621409   -471.41073    1570.6864   -8524.2224   -6953.5361   0.84523576 
   99600    54.116654   -449.20662    1556.1717   -8533.5382   -6977.3664   0.84523576 
   99700    55.240793    -383.1257    1588.4973   -8529.5235   -6941.0262   0.84523576 
   99800    54.547056   -402.10241    1568.5483   -8521.4148   -6952.8665   0.84523576 
   99900    54.687387   -373.11538    1572.5836   -8544.7928   -6972.2092   0.84523576 
  100000     54.59761   -449.85318     1570.002   -8501.8967   -6931.8947   0.84523576 
  100100    55.044966   -372.33077    1582.8661   -8502.2848   -6919.4186   0.84523576 
Loop time of 1330.08 on 12 procs for 100000 steps with 9648 atoms

Performance: 6.496 ns/day, 3.695 hours/ns, 75.184 timesteps/s
98.2% CPU use with 12 MPI tasks x 1 OpenMP threads

MPI task timing breakdown:
Section |  min time  |  avg time  |  max time  |%varavg| %total
---------------------------------------------------------------
Pair    | 700.28     | 827.64     | 915.64     | 236.9 | 62.22
Bond    | 35.502     | 40.043     | 44.088     |  42.3 |  3.01
Kspace  | 337.99     | 416.67     | 529.11     | 296.2 | 31.33
Neigh   | 2.1248     | 2.1249     | 2.1251     |   0.0 |  0.16
Comm    | 18.357     | 31.412     | 50.887     | 206.5 |  2.36
Output  | 0.06106    | 0.069907   | 0.16449    |  10.8 |  0.01
Modify  | 7.2646     | 7.6867     | 8.2038     |   9.1 |  0.58
Other   |            | 4.432      |            |       |  0.33

Nlocal:    804 ave 870 max 697 min
Histogram: 1 1 0 0 1 3 0 3 1 2
Nghost:    6523.33 ave 6734 max 6384 min
Histogram: 1 1 4 1 2 1 0 0 1 1
Neighs:    882714 ave 1.0054e+06 max 714528 min
Histogram: 1 1 1 0 1 1 3 1 1 2

Total # of neighbors = 10592563
Ave neighs/atom = 1097.9
Ave special neighs/atom = 7.9602
Neighbor list builds = 100
Dangerous builds = 0
Ewald initialization ...
WARNING: Using 12-bit tables for long-range coulomb (../kspace.cpp:321)
  G vector (1/distance) = 0.134422
  estimated absolute RMS force accuracy = 0.0387028
  estimated relative force accuracy = 0.000116552
  KSpace vectors: actual max1d max3d = 725 7 1687
                  kxmax kymax kzmax  = 6 6 7
Setting up Verlet run ...
  Unit style    : real
  Current step  : 100100
  Time step     : 1
Per MPI rank memory allocation (min/avg/max) = 34.58 | 34.58 | 34.58 Mbytes
Step Temp Press KinEng PotEng TotEng Density 
  100100    55.044966   -372.33077    1582.8661   -8502.2848   -6919.4186   0.84523576 
  100200    187.86173   -370.63634    5402.1283   -4872.0343    530.09402   0.84523576 
  100300    234.22295   -119.98477    6735.2858   -3426.0684    3309.2174   0.84523576 
  100400    254.75996   -49.702632    7325.8454   -2963.1805    4362.6649   0.84523576 
  100500    260.35183   -158.70927    7486.6446   -2696.0277    4790.6169   0.84523576 
  100600    259.88104   -216.52577    7473.1067   -2660.5697     4812.537   0.84523576 
  100700     264.2871   -160.02025    7599.8068   -2526.1771    5073.6297   0.84523576 
  100800    262.32726   -204.23358    7543.4496   -2523.5243    5019.9254   0.84523576 
  100900    262.99282   -217.61252    7562.5887   -2393.3156    5169.2731   0.84523576 
  101000    260.20501   -145.44008    7482.4225   -2373.9272    5108.4953   0.84523576 
  101100    264.11877   -43.113206    7594.9663   -2280.5561    5314.4102   0.84523576 
  101200    264.29657   -171.56501    7600.0792   -2254.8401    5345.2391   0.84523576 
  101300    261.85235   -164.57499    7529.7934   -2268.0556    5261.7378   0.84523576 
  101400    265.54556   -91.678053    7635.9947   -2296.8637     5339.131   0.84523576 
  101500     266.9012   -173.35857    7674.9774    -2220.285    5454.6924   0.84523576 
  101600    262.57431   -241.21463    7550.5539   -2262.0369    5288.5171   0.84523576 
  101700    261.74693    13.389928     7526.762    -2425.605     5101.157   0.84523576 
  101800    262.58545   -199.48851    7550.8742    -2307.602    5243.2722   0.84523576 
  101900    263.71956   -330.62493    7583.4864   -2251.1163    5332.3701   0.84523576 
  102000    264.36355   -152.21836     7602.005   -2248.0073    5353.9977   0.84523576 
  102100    266.27563   -345.20227    7656.9887    -2241.542    5415.4467   0.84523576 
  102200    264.96909   -238.91414     7619.418   -2205.2084    5414.2096   0.84523576 
  102300    263.71896   -100.86175    7583.4694   -2175.4954    5407.9739   0.84523576 
  102400    266.84305   -169.68253    7673.3052   -2219.5487    5453.7565   0.84523576 
  102500     262.2527   -256.54512    7541.3058   -2195.6664    5345.6394   0.84523576 
  102600     266.0336   -128.88974    7650.0289   -2258.1405    5391.8884   0.84523576 
  102700    261.81367   -222.20512    7528.6809   -2278.4674    5250.2136   0.84523576 
  102800     262.5979   -280.29375    7551.2322   -2077.3325    5473.8997   0.84523576 
  102900    268.99545   -263.18134    7735.1994   -2069.5131    5665.6863   0.84523576 
  103000    267.11451    -206.2373    7681.1113   -2050.6905    5630.4208   0.84523576 
  103100    267.22693   -290.66517     7684.344   -2140.1509     5544.193   0.84523576 
  103200    264.73058   -249.25257    7612.5595   -2235.1111    5377.4483   0.84523576 
  103300    268.70065   -114.23874    7726.7221   -2251.5126    5475.2095   0.84523576 
  103400    265.55809   -186.42104    7636.3551   -2170.3217    5466.0334   0.84523576 
  103500     262.6071   -321.29358    7551.4969    -2192.458    5359.0389   0.84523576 
  103600    265.49022   -395.64948    7634.4034   -2219.1464    5415.2571   0.84523576 
  103700     260.2391   -242.45796     7483.403   -2130.3314    5353.0716   0.84523576 
  103800    264.22001   -165.58348    7597.8775   -2129.7248    5468.1527   0.84523576 
  103900    262.66513   -222.48377    7553.1657   -2144.0958    5409.0699   0.84523576 
  104000    266.50179   -114.13726    7663.4919   -2057.4987    5605.9933   0.84523576 
  104100    263.25078   -468.40332    7570.0065     -2033.69    5536.3165   0.84523576 
  104200     266.2719   -422.27254    7656.8813   -2182.7664    5474.1149   0.84523576 
  104300    263.76334   -126.48489    7584.7457   -2088.5524    5496.1932   0.84523576 
  104400    264.74301    44.962645    7612.9168    -2114.287    5498.6298   0.84523576 
  104500    266.30619   -163.71784    7657.8675   -2023.9732    5633.8943   0.84523576 
  104600     266.5238   -134.07189    7664.1248   -2213.8104    5450.3144   0.84523576 
  104700    261.87948   -203.46332    7530.5734   -2175.9107    5354.6627   0.84523576 
  104800    263.89782   -153.93229    7588.6126   -2178.9377    5409.6749   0.84523576 
  104900    261.72534   -173.41836    7526.1411   -2087.0728    5439.0683   0.84523576 
  105000    264.21775   -187.14494    7597.8124   -2184.5022    5413.3102   0.84523576 
  105100     261.7105   -268.68719    7525.7144   -2155.3216    5370.3927   0.84523576 
  105200    269.04965   -374.80744    7736.7581   -2089.6875    5647.0705   0.84523576 
  105300    268.15884    -416.1655    7711.1419   -2018.0135    5693.1284   0.84523576 
  105400    267.90968   -105.20516    7703.9772   -1971.7075    5732.2697   0.84523576 
  105500    267.31636   -268.13485    7686.9157    -2128.679    5558.2367   0.84523576 
  105600    266.80417   -297.50122    7672.1872   -2154.3143    5517.8729   0.84523576 
  105700    267.37467   -266.49012    7688.5923    -2160.591    5528.0014   0.84523576 
  105800    265.48799    -357.1122    7634.3393   -2054.5859    5579.7534   0.84523576 
  105900    263.64164   -173.66383     7581.246   -2079.9861    5501.2598   0.84523576 
  106000    263.22551    -285.3171    7569.2798   -2011.9495    5557.3303   0.84523576 
  106100    265.30409   -83.012365    7629.0512   -1917.7059    5711.3453   0.84523576 
  106200    265.38111      16.6855     7631.266   -2002.1276    5629.1384   0.84523576 
  106300    269.03778   -116.54539    7736.4167   -1924.0454    5812.3714   0.84523576 
  106400    274.48501   -202.05643    7893.0565   -2008.5158    5884.5407   0.84523576 
  106500    269.76587   -196.31198    7757.3534   -1793.7666    5963.5868   0.84523576 
  106600    272.19851   -202.97639    7827.3062   -1995.1484    5832.1578   0.84523576 
  106700    264.60031   -252.06728    7608.8132   -1989.1124    5619.7008   0.84523576 
  106800     269.1794   -156.49632     7740.489   -1858.8174    5881.6716   0.84523576 
  106900    271.74426   -225.29944    7814.2438   -1794.0199    6020.2239   0.84523576 
  107000    270.34909   -255.91115    7774.1246   -1925.0101    5849.1146   0.84523576 
  107100    267.87938   -287.53626    7703.1057   -1998.6762    5704.4296   0.84523576 
  107200    261.78024   -236.83224    7527.7197    -2012.332    5515.3877   0.84523576 
  107300    268.45263   -299.56064    7719.5902   -1941.8767    5777.7135   0.84523576 
  107400    267.78247   -338.42038    7700.3192   -1866.1171    5834.2021   0.84523576 
  107500    267.12995   -139.63254    7681.5553   -1926.8556    5754.6997   0.84523576 
  107600    270.20434   -200.14693    7769.9622   -1957.7059    5812.2563   0.84523576 
  107700    268.19872   -245.77803    7712.2886   -1852.4438    5859.8448   0.84523576 
  107800    269.75557   -177.50677    7757.0574   -1909.4878    5847.5696   0.84523576 
  107900    267.29168   -177.83299    7686.2061   -1895.8505    5790.3555   0.84523576 
  108000    266.15896   -197.19749    7653.6338   -1951.9143    5701.7195   0.84523576 
  108100    266.89924   -243.91931    7674.9211   -1819.7506    5855.1706   0.84523576 
  108200    269.23591   -221.06902     7742.114   -1829.5491    5912.5649   0.84523576 
  108300    273.53637   -309.73067    7865.7775   -1829.3999    6036.3776   0.84523576 
  108400    267.94835   -281.26811    7705.0892   -1850.8494    5854.2398   0.84523576 
  108500    268.08227   -294.35421    7708.9401   -1929.5783    5779.3618   0.84523576 
  108600    270.53443   -351.99288    7779.4541     -2024.28    5755.1742   0.84523576 
  108700    267.03987   -327.03887    7678.9651   -1913.2142    5765.7509   0.84523576 
  108800     268.9845    -344.1767    7734.8845   -1817.4065    5917.4779   0.84523576 
  108900     266.4299   -279.23328    7661.4247   -1764.1791    5897.2456   0.84523576 
  109000    271.41207    -167.0168    7804.6914   -1911.4503    5893.2412   0.84523576 
  109100    267.12672   -217.20346    7681.4625   -1997.3461    5684.1164   0.84523576 
  109200    266.70708   -106.78975    7669.3955   -1915.4674     5753.928   0.84523576 
  109300    269.02326   -48.146897    7735.9992   -1806.9403    5929.0589   0.84523576 
  109400    271.98789   -320.14768    7821.2497   -1844.3419    5976.9078   0.84523576 
  109500    269.15943   -293.93997    7739.9148   -1906.9638     5832.951   0.84523576 
  109600    266.74886   -289.04115    7670.5966    -1860.722    5809.8747   0.84523576 
  109700    268.69934   -202.79236    7726.6844   -1749.0121    5977.6723   0.84523576 
  109800     273.9183   -148.10566    7876.7602   -1896.4592     5980.301   0.84523576 
  109900    272.56145   -187.38987    7837.7428   -1797.1578     6040.585   0.84523576 
  110000    266.89305   -115.80794    7674.7432   -1823.1449    5851.5983   0.84523576 
  110100    269.08901   -285.35988    7737.8898   -1815.5725    5922.3173   0.84523576 
  110200    271.49112   -294.35934    7806.9647   -1839.3096    5967.6551   0.84523576 
  110300    270.67623   -281.42554    7783.5318   -1578.5464    6204.9854   0.84523576 
  110400     270.2953   -178.23707    7772.5777   -1685.7193    6086.8585   0.84523576 
  110500    271.45659   -162.04127    7805.9717   -1614.3581    6191.6136   0.84523576 
  110600    271.97516   -279.08543    7820.8836   -1707.3841    6113.4996   0.84523576 
  110700    272.64945   -248.10555    7840.2734   -1751.9465    6088.3269   0.84523576 
  110800    274.67289   -287.21744    7898.4593   -1672.2782    6226.1811   0.84523576 
  110900     274.8904   -213.76094    7904.7137   -1583.9893    6320.7245   0.84523576 
  111000     274.6872   -129.16627    7898.8707   -1683.5476    6215.3231   0.84523576 
  111100    272.79205   -257.37433     7844.374    -1751.677     6092.697   0.84523576 
  111200    274.40194   -220.82717    7890.6677   -1801.6045    6089.0632   0.84523576 
  111300    270.56643   -348.37631    7780.3742   -1729.7392     6050.635   0.84523576 
  111400    273.71162   -269.45156    7870.8171   -1719.5957    6151.2213   0.84523576 
  111500    275.50666   -335.61593     7922.435   -1772.7454    6149.6896   0.84523576 
  111600    273.83776   -389.82595    7874.4444   -1888.1328    5986.3116   0.84523576 
  111700    272.20682   -177.28315    7827.5452   -1856.8348    5970.7104   0.84523576 
  111800    275.66868   -330.66389     7927.094   -1774.6214    6152.4726   0.84523576 
  111900    271.60793   -333.56418    7810.3236   -1731.1423    6079.1813   0.84523576 
  112000    270.43171   -129.79947    7776.5005   -1717.4099    6059.0905   0.84523576 
  112100    276.42083   -247.67145    7948.7227   -1717.3833    6231.3394   0.84523576 
  112200    270.85777   -287.06371     7788.752   -1629.6992    6159.0528   0.84523576 
  112300    273.80799   -167.79977    7873.5882   -1762.2525    6111.3357   0.84523576 
  112400    279.14322   -324.72329    8027.0073   -1799.6919    6227.3154   0.84523576 
  112500    275.63475   -371.62115    7926.1184   -1791.6458    6134.4726   0.84523576 
  112600    274.09398   -241.00859    7881.8121   -1663.4248    6218.3872   0.84523576 
  112700    276.63659   -254.04339    7954.9271    -1661.592    6293.3351   0.84523576 
  112800    274.49793   -223.47489    7893.4281   -1728.9292     6164.499   0.84523576 
  112900    276.51955   -238.70688    7951.5616   -1684.1562    6267.4054   0.84523576 
  113000    275.01404    -323.0454    7908.2692   -1615.5621    6292.7071   0.84523576 
  113100    275.86091   -395.83845    7932.6217   -1663.7652    6268.8565   0.84523576 
  113200    274.21257   -302.30954    7885.2223   -1658.3803    6226.8421   0.84523576 
  113300    274.81982   -455.24055    7902.6844   -1643.3163    6259.3681   0.84523576 
  113400    279.64175   -357.59002     8041.343   -1672.8344    6368.5086   0.84523576 
  113500    272.50061   -308.08491    7835.9934     -1654.53    6181.4634   0.84523576 
  113600    275.14404   -203.55379    7912.0076   -1647.8929    6264.1147   0.84523576 
  113700    273.55325   -307.15079     7866.263   -1698.9879    6167.2751   0.84523576 
  113800    277.32807   -215.21692    7974.8111   -1775.1614    6199.6497   0.84523576 
  113900     277.6081    -251.5933    7982.8637   -1847.9196    6134.9441   0.84523576 
  114000    272.22893    -361.2092     7828.181    -1643.441      6184.74   0.84523576 
  114100    272.56725   -410.66126    7837.9095   -1720.6857    6117.2239   0.84523576 
  114200    274.71397   -96.092899    7899.6406   -1733.5421    6166.0985   0.84523576 
  114300     275.5127   -230.26007    7922.6086   -1667.3612    6255.2474   0.84523576 
  114400    271.29192   -306.57532    7801.2364   -1620.9871    6180.2494   0.84523576 
  114500    275.73821   -269.93613    7929.0934   -1639.2361    6289.8573   0.84523576 
  114600    279.88873   -318.08174    8048.4452   -1677.2514    6371.1938   0.84523576 
  114700    276.51805   -435.32918    7951.5185   -1618.6579    6332.8606   0.84523576 
  114800    273.15245   -424.95079    7854.7375   -1813.7206    6041.0169   0.84523576 
  114900     277.7665   -323.00562    7987.4185   -1737.7274    6249.6911   0.84523576 
  115000    276.48296   -378.02839    7950.5093   -1706.9044     6243.605   0.84523576 
  115100    276.05975   -363.40671    7938.3394   -1637.2114     6301.128   0.84523576 
  115200    277.83208   -315.25723    7989.3044   -1698.1251    6291.1792   0.84523576 
  115300    276.06423   -177.49592    7938.4684   -1604.4727    6333.9957   0.84523576 
  115400    275.60119   -106.84246    7925.1532   -1633.1877    6291.9655   0.84523576 
  115500    280.24165   -169.95647    8058.5938   -1627.0495    6431.5443   0.84523576 
  115600    275.48742   -268.18234    7921.8817    -1631.755    6290.1267   0.84523576 
  115700    277.68565   -346.05384    7985.0936   -1651.7295    6333.3641   0.84523576 
  115800     277.0802   -337.55042    7967.6836   -1638.0552    6329.6284   0.84523576 
  115900    278.86545   -345.84767      8019.02   -1644.1398    6374.8802   0.84523576 
  116000    278.74705   -165.77471    8015.6151    -1583.415    6432.2001   0.84523576 
  116100    276.06306   -315.16074    7938.4346    -1728.591    6209.8436   0.84523576 
  116200    272.17866   -302.01503    7826.7354   -1647.3305     6179.405   0.84523576 
  116300    275.45811   -175.86037    7921.0388   -1701.2277    6219.8111   0.84523576 
  116400    276.70151   -270.14012     7956.794   -1546.5766    6410.2174   0.84523576 
  116500     279.2738   -258.04708    8030.7624   -1610.4084     6420.354   0.84523576 
  116600    271.82936   -289.06796    7816.6911   -1596.1692    6220.5219   0.84523576 
  116700    274.59841   -366.16286    7896.3175   -1613.7177    6282.5998   0.84523576 
  116800    275.68445   -313.45736    7927.5475   -1668.0532    6259.4943   0.84523576 
