LAMMPS (31 Mar 2017)
  using 1 OpenMP thread(s) per MPI task
Reading data file ...
  orthogonal box = (0 0 0) to (81.6 70.667 100)
  4 by 3 by 1 MPI processor grid
  reading atoms ...
  9648 atoms
  scanning bonds ...
  1 = max bonds/atom
  scanning angles ...
  6 = max angles/atom
  scanning dihedrals ...
  9 = max dihedrals/atom
  reading bonds ...
  8192 bonds
  reading angles ...
  14848 angles
  reading dihedrals ...
  15360 dihedrals
Finding 1-2 1-3 1-4 neighbors ...
  special bond factors lj:   0          0          0.5       
  special bond factors coul: 0          0          0.5       
  4 = max # of 1-2 neighbors
  6 = max # of 1-3 neighbors
  12 = max # of 1-4 neighbors
  14 = max # of special neighbors
1200 atoms in group gold
256 atoms in group thiol
8448 atoms in group dynamic
Ewald initialization ...
WARNING: System is not charge neutral, net charge = 3.328e-05 (../kspace.cpp:302)
WARNING: Using 12-bit tables for long-range coulomb (../kspace.cpp:321)
  G vector (1/distance) = 0.134422
  estimated absolute RMS force accuracy = 0.0387028
  estimated relative force accuracy = 0.000116552
  KSpace vectors: actual max1d max3d = 725 7 1687
                  kxmax kymax kzmax  = 6 6 7
Neighbor list info ...
  update every 1 steps, delay 0 steps, check yes
  max neighbors/atom: 30000, page size: 300000
  master list distance cutoff = 22
  ghost atom cutoff = 22
  binsize = 11, bins = 8 7 10
  3 neighbor lists, perpetual/occasional/extra = 3 0 0
  (1) pair lj/cut/coul/long, perpetual, skip from (3)
      attributes: half, newton on
      pair build: skip
      stencil: none
      bin: none
  (2) pair morse, perpetual, skip from (3)
      attributes: half, newton on
      pair build: skip
      stencil: none
      bin: none
  (3) neighbor class addition, perpetual
      attributes: half, newton on
      pair build: half/bin/newton
      stencil: half/bin/3d/newton
      bin: standard
Setting up cg style minimization ...
  Unit style    : real
Per MPI rank memory allocation (min/avg/max) = 34.39 | 34.4 | 34.4 Mbytes
Step Temp Press KinEng PotEng TotEng Density 
       0            0 1.0124368e+16            0 2.1285833e+16 2.1285833e+16   0.84523576 
     100            0    93261.333            0    267268.14    267268.14   0.84523576 
Loop time of 2.20884 on 12 procs for 100 steps with 9648 atoms

99.4% CPU use with 12 MPI tasks x 1 OpenMP threads

Minimization stats:
  Stopping criterion = max iterations
  Energy initial, next-to-last, final = 
     2.12858325869e+16      269469.621083      267268.144713
  Force two-norm initial, final = 1.56909e+18 2451.17
  Force max component initial, final = 8.51832e+17 321.671
  Final line search alpha, max atom move = 0.000342903 0.110302
  Iterations, force evaluations = 100 122

MPI task timing breakdown:
Section |  min time  |  avg time  |  max time  |%varavg| %total
---------------------------------------------------------------
Pair    | 1.5152     | 1.6349     | 1.7302     |   4.0 | 74.01
Bond    | 0.049536   | 0.053172   | 0.054541   |   0.7 |  2.41
Kspace  | 0.3756     | 0.47221    | 0.58781    |   7.3 | 21.38
Neigh   | 0          | 0          | 0          |   0.0 |  0.00
Comm    | 0.029752   | 0.037784   | 0.047922   |   2.7 |  1.71
Output  | 3.7193e-05 | 5.0942e-05 | 0.00020218 |   0.0 |  0.00
Modify  | 0.00019598 | 0.000223   | 0.00023961 |   0.0 |  0.01
Other   |            | 0.01052    |            |       |  0.48

Nlocal:    804 ave 816 max 794 min
Histogram: 2 0 2 3 1 1 0 0 1 2
Nghost:    6468.83 ave 6489 max 6447 min
Histogram: 2 1 0 1 0 3 1 2 1 1
Neighs:    996495 ave 1.02281e+06 max 962793 min
Histogram: 1 1 0 0 4 0 2 1 1 2

Total # of neighbors = 11957944
Ave neighs/atom = 1239.42
Ave special neighs/atom = 7.9602
Neighbor list builds = 0
Dangerous builds = 0
Ewald initialization ...
WARNING: Using 12-bit tables for long-range coulomb (../kspace.cpp:321)
  G vector (1/distance) = 0.134422
  estimated absolute RMS force accuracy = 0.0387028
  estimated relative force accuracy = 0.000116552
  KSpace vectors: actual max1d max3d = 725 7 1687
                  kxmax kymax kzmax  = 6 6 7
Setting up Verlet run ...
  Unit style    : real
  Current step  : 100
  Time step     : 1
Per MPI rank memory allocation (min/avg/max) = 33.28 | 33.29 | 33.29 Mbytes
Step Temp Press KinEng PotEng TotEng Density 
     100            0    93261.333            0    267268.14    267268.14   0.84523576 
     200    204.83791    931265.57    5890.2933    3357844.7      3363735   0.84523576 
     300    159.97133    274602.98    4600.1154      1490244    1494844.1   0.84523576 
     400    141.22297    186810.83      4060.99    811266.94    815327.93   0.84523576 
     500    119.55928    133472.02    3438.0315    489250.08    492688.11   0.84523576 
     600    100.17458     106035.1    2880.6078    356870.39       359751   0.84523576 
     700    83.374576    92512.454    2397.5088    291526.22    293923.73   0.84523576 
     800    70.002848    84271.083    2012.9931    252075.74    254088.73   0.84523576 
     900    58.902589    78136.739    1693.7955    227048.74    228742.53   0.84523576 
    1000    52.531005    73751.381     1510.575    208426.46    209937.04   0.84523576 
    1100    47.091873    69845.251     1354.168    193029.55    194383.71   0.84523576 
    1200    40.636863    66410.627    1168.5485    179520.58    180689.13   0.84523576 
    1300    37.491176    63690.166    1078.0916    168233.49    169311.58   0.84523576 
    1400    30.847514     61048.04    887.04726     159280.3    160167.35   0.84523576 
    1500    28.947701    58884.016    832.41645    152116.96    152949.37   0.84523576 
    1600    27.374637    57010.409    787.18162    145178.18    145965.36   0.84523576 
    1700    26.133875    55250.823    751.50242    138707.82    139459.32   0.84523576 
    1800    24.253854    53704.562    697.44079    133063.36     133760.8   0.84523576 
    1900     22.99284    52197.359    661.17922    127895.46    128556.63   0.84523576 
    2000    21.748071    50760.618     625.3848    123182.16    123807.54   0.84523576 
    2100    19.682757    49479.808    565.99488    119172.91    119738.91   0.84523576 
    2200    17.808181    48357.785    512.08983     115655.9    116167.99   0.84523576 
    2300     19.01082     47191.93    546.67275    112006.45    112553.13   0.84523576 
    2400    19.110634    46185.246    549.54299     108445.1    108994.65   0.84523576 
    2500    19.837302    45243.755    570.43896    104719.77    105290.21   0.84523576 
    2600    20.711533    44191.242    595.57824    101194.56    101790.13   0.84523576 
    2700    19.234213    43237.116    553.09662     97979.65    98532.747   0.84523576 
    2800    18.451547    42378.489    530.59037    95000.349    95530.939   0.84523576 
    2900    18.583678    41518.735    534.38991    92206.339    92740.729   0.84523576 
    3000    18.821169    40712.948    541.21917    89445.067    89986.286   0.84523576 
    3100    17.791902    39930.339     511.6217     86967.41    87479.032   0.84523576 
    3200     17.17457    39188.218    493.86977    84765.248    85259.118   0.84523576 
    3300    17.448379    38481.386    501.74339    82373.313    82875.057   0.84523576 
    3400    16.750334    37704.831     481.6705    80132.557    80614.227   0.84523576 
    3500    16.550602    37016.867    475.92704    78152.657    78628.584   0.84523576 
    3600    15.767564    36345.023    453.41011    76316.794    76770.204   0.84523576 
    3700    15.502361    35770.052    445.78396     74575.94    75021.724   0.84523576 
    3800    15.230879    35150.525    437.97724    72953.846    73391.824   0.84523576 
    3900    14.565576    34567.211    418.84588    71464.089    71882.935   0.84523576 
    4000    14.469748     34108.26    416.09026    70005.192    70421.283   0.84523576 
    4100    15.033381    33627.414    432.29803    68516.376    68948.674   0.84523576 
    4200    15.916954    33115.776    457.70592    67065.261    67522.967   0.84523576 
    4300    16.027199    32659.273    460.87614    65579.227    66040.103   0.84523576 
    4400    16.037264    32145.716    461.16554    64152.806    64613.972   0.84523576 
    4500    15.744203    31740.077    452.73833    62903.109    63355.848   0.84523576 
    4600    16.025786    31283.829     460.8355    61601.969    62062.805   0.84523576 
    4700    15.134146    30830.271    435.19562    60364.786    60799.982   0.84523576 
    4800     14.55155    30376.483    418.44255     59277.32    59695.762   0.84523576 
    4900    14.190403    29939.152    408.05744    58245.683     58653.74   0.84523576 
    5000    13.804925     29596.01    396.97269    57315.995    57712.968   0.84523576 
    5100    14.766438    29232.977    424.62183     56386.92    56811.542   0.84523576 
    5200    14.606672    28891.948    420.02762    55491.123     55911.15   0.84523576 
    5300    14.946256    28469.589    429.79266    54582.313    55012.105   0.84523576 
    5400     15.36522    28118.511    441.84035    53647.623    54089.464   0.84523576 
    5500    14.661658    27838.404    421.60881    52756.493    53178.102   0.84523576 
    5600    14.647403    27538.676    421.19889    51996.979    52418.178   0.84523576 
    5700    14.992833    27233.593    431.13203     51199.38    51630.512   0.84523576 
    5800    14.856976    26872.824    427.22533    50439.497    50866.722   0.84523576 
    5900    15.154057    26641.365    435.76816    49650.438    50086.207   0.84523576 
    6000    14.853194    26322.343     427.1166    48945.178    49372.294   0.84523576 
    6100    14.571993    25979.986    419.03042    48307.568    48726.598   0.84523576 
    6200    14.444221    25766.208    415.35621    47691.991    48107.348   0.84523576 
    6300     14.13156    25486.478    406.36537    47095.322    47501.688   0.84523576 
    6400    14.044746    25227.763    403.86897    46587.517    46991.386   0.84523576 
    6500     14.25538    25033.307    409.92592    46086.446    46496.372   0.84523576 
    6600     14.81662    24825.434    426.06486    45540.766     45966.83   0.84523576 
    6700    15.421622    24612.245    443.46223    44947.502    45390.964   0.84523576 
    6800    15.532653    24374.992    446.65502    44380.975     44827.63   0.84523576 
    6900    14.853771     24157.98    427.13317    43878.603    44305.736   0.84523576 
    7000    14.914769    24025.872    428.88723     43379.72    43808.607   0.84523576 
    7100    15.375815    23761.392      442.145    42856.813    43298.958   0.84523576 
    7200    15.617944    23560.244    449.10765    42332.506    42781.613   0.84523576 
    7300    15.707149    23393.875     451.6728    41825.016    42276.689   0.84523576 
    7400    15.536777    23151.973    446.77361     41341.62    41788.394   0.84523576 
    7500      15.4369    22963.402    443.90156    40877.447    41321.348   0.84523576 
    7600    15.274114    22761.237     439.2205    40446.605    40885.825   0.84523576 
    7700    15.742296    22563.402    452.68349    39982.599    40435.282   0.84523576 
    7800     16.09998    22384.311    462.96901    39523.322    39986.291   0.84523576 
    7900    15.977267    22203.106    459.44028    39074.988    39534.428   0.84523576 
    8000    16.085543     21977.19    462.55386    38658.695    39121.249   0.84523576 
    8100    15.816049    21813.376    454.80431     38270.54    38725.344   0.84523576 
    8200    16.209441    21584.639    466.11666    37881.596    38347.712   0.84523576 
    8300    16.818088    21423.495    483.61882     37391.38    37874.999   0.84523576 
    8400    16.774695     21255.62    482.37101    36953.782    37436.153   0.84523576 
    8500    16.935527     21055.55    486.99588    36551.715    37038.711   0.84523576 
    8600    16.893772    20873.247    485.79519    36139.968    36625.763   0.84523576 
    8700    16.974814      20718.6    488.12562    35733.632    36221.758   0.84523576 
    8800    16.959384    20537.649    487.68191    35317.093    35804.775   0.84523576 
    8900    17.512365    20320.764    503.58336    34890.386    35393.969   0.84523576 
    9000    17.743843    20181.574    510.23972    34412.239    34922.479   0.84523576 
    9100    18.123975    20027.676    521.17075    33985.861    34507.032   0.84523576 
    9200    17.892983    19794.324    514.52836    33567.326    34081.854   0.84523576 
    9300    17.616376    19594.082    506.57431    33182.274    33688.848   0.84523576 
    9400    17.562407    19471.319    505.02236    32827.229    33332.251   0.84523576 
    9500    17.641469    19284.612    507.29588    32464.192    32971.488   0.84523576 
    9600    18.004134    19104.441    517.72461    32083.438    32601.163   0.84523576 
    9700    18.089969    18982.623    520.19289    31716.093    32236.286   0.84523576 
    9800    18.037111    18811.363    518.67289    31343.618    31862.291   0.84523576 
    9900    17.860594    18657.976    513.59699    31003.373     31516.97   0.84523576 
   10000    17.623661    18518.182    506.78378    30686.813    31193.597   0.84523576 
   10100    17.885178    18353.736    514.30392    30373.484    30887.788   0.84523576 
   10200    17.922444    18272.577    515.37555    30080.468    30595.844   0.84523576 
   10300    17.983438     18110.79    517.12947    29756.755    30273.885   0.84523576 
   10400    17.877953    17954.896    514.09617     29454.54    29968.636   0.84523576 
   10500     18.00875    17806.019    517.85734    29201.442    29719.299   0.84523576 
   10600    17.921667    17698.252    515.35322    28959.035    29474.388   0.84523576 
   10700     17.68238    17610.608     508.4723    28738.467     29246.94   0.84523576 
   10800     17.86765     17500.59    513.79991    28509.845    29023.645   0.84523576 
   10900    17.758182    17410.155    510.65207    28286.151    28796.803   0.84523576 
   11000    18.070866    17268.927    519.64355    28057.779    28577.423   0.84523576 
   11100    18.082031    17154.402    519.96461    27857.068    28377.032   0.84523576 
   11200    17.978217    17034.158    516.97935    27650.296    28167.275   0.84523576 
   11300     18.30017    16922.666    526.23738    27435.338    27961.576   0.84523576 
   11400    17.907087    16822.947    514.93394    27239.095    27754.029   0.84523576 
   11500    18.238575    16726.291    524.46616    27037.689    27562.155   0.84523576 
   11600    18.645202    16615.282    536.15909    26850.131     27386.29   0.84523576 
   11700    18.537181    16494.519    533.05285    26664.175    27197.228   0.84523576 
   11800     18.98077    16383.182    545.80863    26457.428    27003.236   0.84523576 
   11900    18.603564    16294.515    534.96175    26270.937    26805.899   0.84523576 
   12000    18.790221    16220.163    540.32925    26087.241    26627.571   0.84523576 
   12100    19.333428    16078.212    555.94962    25875.737    26431.686   0.84523576 
   12200    19.429254    16015.049     558.7052    25667.281    26225.986   0.84523576 
   12300    19.061713    15906.694    548.13624    25481.878    26030.014   0.84523576 
   12400     19.25223    15828.732    553.61471    25316.201    25869.815   0.84523576 
   12500    19.123815    15742.123    549.92202    25146.776    25696.698   0.84523576 
   12600    19.463104    15622.764    559.67858    24932.485    25492.163   0.84523576 
   12700    19.350661     15518.74    556.44517    24735.003    25291.448   0.84523576 
   12800    19.437593    15481.007    558.94498    24543.626    25102.571   0.84523576 
   12900    19.207504    15365.657    552.32858    24372.444    24924.773   0.84523576 
   13000    19.304295    15295.255    555.11189    24190.223    24745.335   0.84523576 
   13100    20.046925     15168.45    576.46686    23980.376    24556.843   0.84523576 
   13200    20.172285    15082.456    580.07169    23778.478     24358.55   0.84523576 
   13300    20.156957    15003.103    579.63094    23565.812    24145.443   0.84523576 
   13400    20.338203     14894.68    584.84282    23376.572    23961.415   0.84523576 
   13500    20.398207    14777.763    586.56828    23154.139    23740.708   0.84523576 
   13600    20.306736     14620.87    583.93796    22937.279    23521.217   0.84523576 
   13700    20.442927    14583.916    587.85424    22746.249    23334.103   0.84523576 
   13800    20.245924    14452.003    582.18925    22589.112    23171.301   0.84523576 
   13900    20.322604    14356.284    584.39424    22439.181    23023.575   0.84523576 
   14000    20.804687    14343.739    598.25696     22270.04    22868.297   0.84523576 
   14100    20.372993    14235.962    585.84324    22093.507     22679.35   0.84523576 
   14200    20.545097    14126.618    590.79223    21915.318     22506.11   0.84523576 
   14300    20.533541    14052.747    590.45992    21736.853    22327.312   0.84523576 
   14400    20.703911    13951.243    595.35907    21561.564    22156.923   0.84523576 
   14500    20.836109    13875.892    599.16054    21408.104    22007.265   0.84523576 
   14600    20.657906    13787.731    594.03614    21273.394     21867.43   0.84523576 
   14700     21.01546    13741.508    604.31794    21103.162     21707.48   0.84523576 
   14800    20.673669    13658.993    594.48942    20943.361     21537.85   0.84523576 
   14900    20.863639    13587.091     599.9522    20787.234    21387.186   0.84523576 
   15000    20.772039     13450.17    597.31815    20653.155    21250.474   0.84523576 
   15100    21.432922    13405.264    616.32242    20497.063    21113.385   0.84523576 
   15200    21.121273    13366.491    607.36068    20327.331    20934.692   0.84523576 
   15300    20.956643    13245.319    602.62659     20178.43    20781.057   0.84523576 
   15400    21.433859    13211.316    616.34936    20029.415    20645.765   0.84523576 
   15500     21.08715    13145.674    606.37943    19912.636    20519.016   0.84523576 
   15600    21.434033    13103.245    616.35435    19774.098    20390.453   0.84523576 
   15700    21.339463    13004.708    613.63492    19658.493    20272.128   0.84523576 
   15800    20.821055    12943.212    598.72764    19544.888    20143.616   0.84523576 
   15900    21.017789    12849.405    604.38491    19418.164    20022.549   0.84523576 
   16000    21.732556    12812.559    624.93866    19305.928    19930.867   0.84523576 
   16100    21.415288    12744.259    615.81534    19198.333    19814.149   0.84523576 
   16200    21.948708    12724.526    631.15428    19096.967    19728.121   0.84523576 
   16300    21.134754    12617.514    607.74834    19003.212    19610.961   0.84523576 
   16400    21.891404     12598.47    629.50646    18880.011    19509.518   0.84523576 
   16500    22.012574    12521.429    632.99082    18740.869     19373.86   0.84523576 
   16600    21.965954    12481.067    631.65022     18596.53     19228.18   0.84523576 
   16700    22.309125    12427.601    641.51841     18450.69    19092.209   0.84523576 
   16800    22.045049    12343.245    633.92466    18319.036     18952.96   0.84523576 
   16900    22.027016    12244.789     633.4061    18197.963     18831.37   0.84523576 
   17000    21.775714    12201.334     626.1797    18095.824    18722.004   0.84523576 
   17100    22.284953    12186.205    640.82331    17999.019    18639.843   0.84523576 
   17200     22.25949    12179.298     640.0911    17887.121    18527.212   0.84523576 
   17300    22.313623    12054.121    641.64773    17798.807    18440.455   0.84523576 
   17400    22.564402    11985.342    648.85911     17664.84    18313.699   0.84523576 
   17500    22.420408    11880.142    644.71843    17549.554    18194.272   0.84523576 
   17600    22.617826     11856.12    650.39536    17442.887    18093.282   0.84523576 
   17700    22.458846    11815.054    645.82375    17334.709    17980.533   0.84523576 
   17800    22.639508    11683.081    651.01886    17209.431     17860.45   0.84523576 
   17900    22.914125    11646.563    658.91571    17092.601    17751.517   0.84523576 
   18000    22.816004    11603.488    656.09415     16974.89    17630.985   0.84523576 
   18100    22.640357    11592.321    651.04327    16879.479    17530.522   0.84523576 
   18200    22.662683    11491.794    651.68527    16789.691    17441.376   0.84523576 
   18300    22.593159    11444.559    649.68605    16717.114      17366.8   0.84523576 
   18400    23.427391    11385.359    673.67511    16584.316    17257.991   0.84523576 
   18500    22.970303    11319.146    660.53115    16485.409     17145.94   0.84523576 
   18600    23.431921    11296.611    673.80538    16390.029    17063.834   0.84523576 
   18700     23.07752    11240.042    663.61426    16289.774    16953.388   0.84523576 
   18800    23.473095    11165.181    674.98937    16189.665    16864.654   0.84523576 
   18900    23.587303    11091.249    678.27352    16093.771    16772.044   0.84523576 
   19000    23.848122    11120.559    685.77361    16005.744    16691.518   0.84523576 
   19100    23.507621    11002.233    675.98221    15884.978     16560.96   0.84523576 
   19200    23.650349    11000.767    680.08648     15797.07    16477.157   0.84523576 
   19300    23.728957    10991.505    682.34692    15700.527    16382.873   0.84523576 
   19400     23.76419    10933.679    683.36007    15601.259    16284.619   0.84523576 
   19500    23.624366    10891.389     679.3393    15521.669    16201.008   0.84523576 
   19600    24.166877    10847.307    694.93969    15426.842    16121.781   0.84523576 
   19700    23.656356    10766.205    680.25922    15330.016    16010.275   0.84523576 
   19800     23.72663    10722.893    682.28001    15243.175    15925.455   0.84523576 
   19900    24.022383    10671.826    690.78462    15174.704    15865.489   0.84523576 
   20000    24.441391    10638.456    702.83358    15059.307     15762.14   0.84523576 
   20100    23.798492    10548.283    684.34646    14964.028    15648.375   0.84523576 
   20200    24.442381    10572.185    702.86203     14859.88    15562.742   0.84523576 
   20300    24.271226    10495.776    697.94032    14773.131    15471.071   0.84523576 
   20400    24.018945    10496.058    690.68576    14701.634     15392.32   0.84523576 
   20500    24.150021    10409.966    694.45498    14613.567    15308.022   0.84523576 
   20600    24.247189    10400.703    697.24913    14548.931     15246.18   0.84523576 
   20700    24.461763    10295.821    703.41939    14469.201     15172.62   0.84523576 
   20800    24.433698    10272.717    702.61235    14379.948     15082.56   0.84523576 
   20900    24.342269    10213.625    699.98323    14317.137     15017.12   0.84523576 
   21000    23.776764    10215.181    683.72165    14244.507    14928.228   0.84523576 
   21100    24.701262    10190.648    710.30639    14158.473    14868.779   0.84523576 
   21200    24.497055     10098.73    704.43423    14073.402    14777.836   0.84523576 
   21300    24.801164    10067.686    713.17917    13983.505    14696.685   0.84523576 
   21400    24.275626    9980.1209    698.06685    13909.025    14607.091   0.84523576 
   21500    24.800866    9997.4791    713.17059    13847.203    14560.373   0.84523576 
   21600    25.452071    9922.6988    731.89657    13797.308    14529.205   0.84523576 
   21700    25.216181    9896.2948    725.11334    13717.385    14442.499   0.84523576 
   21800    24.928254    9867.5132    716.83374    13639.064    14355.898   0.84523576 
   21900    24.750019    9833.4178    711.70843    13592.321     14304.03   0.84523576 
   22000    25.506046    9773.3025    733.44866    13516.615    14250.064   0.84523576 
   22100    25.165997     9717.614    723.67026    13449.162    14172.832   0.84523576 
   22200    25.258139    9697.0706    726.31987     13373.74     14100.06   0.84523576 
   22300    25.160862    9629.5569    723.52258    13312.723    14036.246   0.84523576 
   22400     25.28592    9589.1118    727.11875    13250.979    13978.098   0.84523576 
   22500    25.379462    9543.1379    729.80864    13191.707    13921.516   0.84523576 
   22600    25.245646    9547.4965    725.96064    13132.609     13858.57   0.84523576 
   22700    25.642104    9518.9474    737.36112    13042.669    13780.031   0.84523576 
   22800    25.421696    9485.4761    731.02309    12965.853    13696.876   0.84523576 
   22900    25.586363     9437.915    735.75823    12890.676    13626.434   0.84523576 
   23000    25.725045    9376.6173    739.74616    12811.758    13551.504   0.84523576 
   23100    25.762216    9362.1854    740.81506    12752.992    13493.807   0.84523576 
   23200    25.963809    9292.0555    746.61203    12694.089    13440.701   0.84523576 
   23300    25.774867    9263.5151    741.17883     12638.06    13379.239   0.84523576 
   23400    25.750218    9228.1767    740.47003    12562.153    13302.623   0.84523576 
   23500    25.633055    9157.5506    737.10092    12511.234    13248.335   0.84523576 
   23600    25.723499    9107.0514     739.7017    12421.517    13161.218   0.84523576 
   23700    25.623463    9131.7183    736.82509    12380.728    13117.553   0.84523576 
   23800    25.997018    9134.8083    747.56698    12319.726    13067.293   0.84523576 
   23900    25.697671      9038.62    738.95901    12262.282    13001.241   0.84523576 
   24000    26.041194    9014.4589    748.83732    12222.237    12971.074   0.84523576 
   24100    25.737992    8960.7679    740.11847    12160.861     12900.98   0.84523576 
   24200    25.910938    8951.0884     745.0917    12106.638     12851.73   0.84523576 
   24300    25.852887    8950.8068    743.42237    12058.751    12802.173   0.84523576 
   24400    26.496785    8915.9755    761.93823    12015.602     12777.54   0.84523576 
   24500    26.888484    8885.1933    773.20187    11961.034    12734.236   0.84523576 
   24600    26.445408    8862.6012    760.46083    11913.489     12673.95   0.84523576 
   24700    26.930032    8814.8921    774.39661     11857.63    12632.027   0.84523576 
   24800    26.529451    8806.4892    762.87758    11801.758    12564.636   0.84523576 
   24900    26.944929    8765.0626    774.82501    11737.464    12512.289   0.84523576 
   25000    26.828738    8711.0991    771.48383    11676.894    12448.378   0.84523576 
   25100    26.933914    8713.2296    774.50826    11626.845    12401.354   0.84523576 
   25200    27.219309    8670.4022    782.71504    11562.632    12345.348   0.84523576 
   25300    26.993142    8644.6315    776.21141    11485.552    12261.763   0.84523576 
   25400    26.771052    8611.0152    769.82502    11421.888    12191.713   0.84523576 
   25500    27.052714     8564.451    777.92445    11383.984    12161.908   0.84523576 
   25600    27.163852    8542.9389    781.12031    11348.412    12129.532   0.84523576 
   25700    26.981731    8517.4495    775.88327    11287.475    12063.358   0.84523576 
   25800    27.522159    8511.8937    791.42376     11241.59    12033.014   0.84523576 
   25900    26.964193    8457.0114    775.37895    11198.926    11974.305   0.84523576 
   26000    27.147304    8434.1936    780.64447    11133.881    11914.526   0.84523576 
   26100     27.32415    8377.2124    785.72983    11084.449    11870.178   0.84523576 
   26200    27.570065    8350.7502    792.80132    11056.314    11849.116   0.84523576 
   26300    27.493828    8368.2193    790.60907    10987.063    11777.672   0.84523576 
   26400    26.998263     8342.726    776.35866      10937.7    11714.059   0.84523576 
   26500    27.454656    8306.8724    789.48266     10892.33    11681.813   0.84523576 
   26600    27.546349    8265.5906    792.11935    10866.268    11658.387   0.84523576 
   26700    27.170542    8252.5991    781.31271    10817.741    11599.054   0.84523576 
   26800    27.500366    8224.8651    790.79709    10802.603      11593.4   0.84523576 
   26900    27.624492    8195.5731    794.36643    10741.765    11536.131   0.84523576 
   27000    27.481384    8190.4023    790.25122    10713.183    11503.434   0.84523576 
   27100    27.945712    8176.1948    803.60338    10677.218    11480.821   0.84523576 
   27200     27.46533    8132.1285     789.7896    10611.735    11401.525   0.84523576 
   27300     27.54923    8115.5245     792.2022    10574.234    11366.436   0.84523576 
   27400    27.625161     8096.994    794.38565    10543.736    11338.121   0.84523576 
   27500    27.917398    8030.0792    802.78919    10497.086    11299.875   0.84523576 
   27600    28.347912    8089.4478      815.169    10481.078    11296.247   0.84523576 
   27700    28.108629    8013.4109    808.28822    10437.529    11245.817   0.84523576 
   27800    28.112715    8020.8143     808.4057    10377.473    11185.879   0.84523576 
   27900    27.548493    7948.0019      792.181    10363.342    11155.523   0.84523576 
   28000    28.089891    7945.3184    807.74938    10342.672    11150.421   0.84523576 
   28100    28.061213    7914.7534    806.92472    10299.442    11106.367   0.84523576 
   28200    28.256139    7950.8714    812.52999    10266.961    11079.491   0.84523576 
   28300     28.04469    7891.5362    806.44958    10223.615    11030.064   0.84523576 
   28400    28.216371    7887.5887    811.38644    10193.213    11004.599   0.84523576 
   28500    28.088897    7847.5586    807.72079    10158.959    10966.679   0.84523576 
   28600    28.705319    7808.3148    825.44655    10117.457    10942.903   0.84523576 
   28700    28.228663    7784.0753    811.73988    10066.184    10877.923   0.84523576 
   28800    28.498569     7727.469    819.50127    10045.052    10864.553   0.84523576 
   28900    28.577927    7779.9912     821.7833    10011.512    10833.295   0.84523576 
   29000    28.509815    7714.6267    819.82466    9982.0108    10801.835   0.84523576 
   29100    28.501898    7719.7794    819.59702    9937.0748    10756.672   0.84523576 
   29200    28.234903    7694.1834    811.91932    9895.8313    10707.751   0.84523576 
   29300    28.995511    7653.3366    833.79129    9876.4276    10710.219   0.84523576 
   29400    28.820277    7646.6472    828.75228    9846.5126    10675.265   0.84523576 
   29500    28.483709    7582.3212    819.07397    9819.3207    10638.395   0.84523576 
   29600    28.936124    7608.9732    832.08354    9775.5008    10607.584   0.84523576 
   29700    28.772003     7586.366     827.3641    9752.2116    10579.576   0.84523576 
   29800    28.864007    7508.3642    830.00976    9720.4397    10550.449   0.84523576 
   29900    28.297386    7535.2919    813.71607    9681.5884    10495.304   0.84523576 
   30000     28.80418    7496.5538    828.28937    9642.8304     10471.12   0.84523576 
   30100    28.607958     7492.683    822.64685    9612.5966    10435.243   0.84523576 
   30200    29.348948    7424.2173    843.95468    9582.4432    10426.398   0.84523576 
   30300     28.91432    7427.0409    831.45656    9537.6358    10369.092   0.84523576 
   30400    29.546175    7425.4559    849.62609    9505.8467    10355.473   0.84523576 
   30500    29.370275    7422.6501    844.56794    9456.5267    10301.095   0.84523576 
   30600    29.184046    7337.6951    839.21277    9401.8179    10241.031   0.84523576 
   30700    29.120881    7386.5487     837.3964    9372.8591    10210.255   0.84523576 
   30800    29.385818    7298.6885    845.01489    9341.8829    10186.898   0.84523576 
   30900    29.720779    7358.1556    854.64699    9297.6684    10152.315   0.84523576 
   31000     29.34078    7273.3192     843.7198    9263.6726    10107.392   0.84523576 
   31100    29.260699    7330.3856      841.417    9232.9298    10074.347   0.84523576 
   31200    29.578608    7232.6992    850.55874    9205.2111     10055.77   0.84523576 
   31300    30.109393    7236.7817    865.82191    9168.9766    10034.798   0.84523576 
   31400    29.742721    7228.8562    855.27795    9156.4771    10011.755   0.84523576 
   31500    29.840504    7233.2325     858.0898    9112.4615    9970.5513   0.84523576 
   31600    29.476831    7173.7856    847.63204    9068.5759    9916.2079   0.84523576 
   31700    30.119401    7166.7748    866.10972    9047.5733     9913.683   0.84523576 
   31800    29.776672    7176.4198    856.25424    8995.6919    9851.9462   0.84523576 
   31900    29.893611     7092.043    859.61693    8986.6251    9846.2421   0.84523576 
   32000    29.732325    7085.2588      854.979    8940.1715    9795.1505   0.84523576 
   32100    30.094821    7160.9326     865.4029      8903.65     9769.053   0.84523576 
   32200    29.738643    7034.7571    855.16069      8860.79    9715.9507   0.84523576 
   32300    29.734722    7032.7698    855.04795    8828.7328    9683.7807   0.84523576 
   32400    30.070811    7058.7029    864.71245    8794.5462    9659.2586   0.84523576 
   32500    30.194239    6997.2575    868.26175     8752.074    9620.3357   0.84523576 
   32600    30.213019     6991.709    868.80178    8706.9111    9575.7129   0.84523576 
   32700    30.604363    7026.8462    880.05522       8659.3    9539.3553   0.84523576 
   32800    30.715043    6987.6804    883.23791    8646.9546    9530.1926   0.84523576 
   32900    30.471327    6908.5916    876.22966    8616.2059    9492.4356   0.84523576 
   33000    30.370837    6937.4519    873.33998    8554.7779    9428.1178   0.84523576 
   33100    30.775981    6862.2741    884.99025    8536.1122    9421.1024   0.84523576 
   33200    30.306115    6881.5183    871.47883    8508.2646    9379.7434   0.84523576 
   33300    30.485639    6902.7502     876.6412    8479.9285    9356.5697   0.84523576 
   33400    30.901012    6845.9917    888.58564    8436.7076    9325.2932   0.84523576 
   33500    30.994352    6819.3407     891.2697    8379.5213     9270.791   0.84523576 
   33600    30.688697    6790.6376    882.48033    8342.7114    9225.1917   0.84523576 
   33700    30.600479    6831.6741    879.94353    8310.3334    9190.2769   0.84523576 
   33800    30.815586    6735.3114    886.12913    8264.6993    9150.8285   0.84523576 
   33900    30.715267     6722.128    883.24435    8235.6782    9118.9225   0.84523576 
   34000    31.261098    6672.6682    898.94022    8204.8999    9103.8402   0.84523576 
   34100    30.613019    6668.5569    880.30412    8168.2818    9048.5859   0.84523576 
   34200    31.002518    6661.7978    891.50452    8147.1783    9038.6828   0.84523576 
   34300    31.701659    6668.8771    911.60893    8097.7802    9009.3891   0.84523576 
   34400    30.994851    6595.8977    891.28403    8079.2307    8970.5147   0.84523576 
   34500    31.591099     6627.896    908.42968    8022.1519    8930.5816   0.84523576 
   34600    31.445756     6616.476     904.2502    7993.1291    8897.3794   0.84523576 
   34700    31.102268    6571.7286    894.37292    7956.1433    8850.5162   0.84523576 
   34800    31.115065    6568.5053     894.7409    7943.6576    8838.3985   0.84523576 
   34900    31.141229    6523.7023    895.49329    7885.0492    8780.5425   0.84523576 
   35000    30.977557     6492.637    890.78674     7869.723    8760.5097   0.84523576 
   35100    31.321313    6475.2313    900.67176    7839.9313     8740.603   0.84523576 
   35200    31.640201    6471.1077    909.84165    7806.3852    8716.2268   0.84523576 
   35300    31.861103    6419.3705    916.19388    7784.0858    8700.2797   0.84523576 
   35400    31.652797    6412.9434    910.20385    7747.0252     8657.229   0.84523576 
   35500    31.273408     6446.404    899.29421    7721.5082    8620.8024   0.84523576 
   35600    31.240031     6395.409    898.33441    7674.6745     8573.009   0.84523576 
   35700     32.03702    6385.2038    921.25251    7639.7558    8561.0083   0.84523576 
   35800    30.940361    6359.8116    889.71714     7617.545    8507.2622   0.84523576 
   35900    31.238717    6348.7963    898.29663    7589.7476    8488.0442   0.84523576 
   36000    31.542098    6329.5467    907.02061    7578.3665    8485.3871   0.84523576 
   36100    31.916971    6301.7502    917.80042    7529.5213    8447.3217   0.84523576 
   36200    32.186325    6309.3719    925.54593    7518.6927    8444.2386   0.84523576 
   36300    32.157881    6339.3944      924.728    7476.4318    8401.1598   0.84523576 
   36400    31.779395    6285.4106    913.84429    7435.5496    8349.3939   0.84523576 
   36500    31.796685    6276.4239    914.34149    7415.7142    8330.0557   0.84523576 
   36600     32.04526    6222.2885    921.48947    7396.6123    8318.1017   0.84523576 
   36700    31.778638    6226.1961    913.82252     7379.786    8293.6085   0.84523576 
   36800    32.178608    6167.8902    925.32402     7339.543     8264.867   0.84523576 
   36900    31.522398    6200.2299    906.45411    7354.3157    8260.7698   0.84523576 
   37000    32.050845    6231.8124    921.65007    7301.1514    8222.8014   0.84523576 
   37100     31.89775    6153.7592     917.2477    7286.3844    8203.6321   0.84523576 
   37200    32.662607    6155.4598    939.24182    7263.2153    8202.4572   0.84523576 
   37300    32.516741    6166.2033    935.04734    7231.5476    8166.5949   0.84523576 
   37400    32.336395    6098.1778    929.86133    7202.7431    8132.6044   0.84523576 
   37500    32.334162    6145.8799     929.7971    7202.2703    8132.0674   0.84523576 
   37600    31.936752    6088.9574    918.36922      7187.97    8106.3392   0.84523576 
   37700    32.917071    6103.6891    946.55917    7148.4218     8094.981   0.84523576 
   37800    32.706365      6071.98    940.50012    7127.6125    8068.1127   0.84523576 
   37900    32.326811    6055.2239    929.58573    7114.0676    8043.6533   0.84523576 
   38000    32.722277    6049.1813    940.95768    7085.1063     8026.064   0.84523576 
   38100    32.803758     5988.862    943.30075    7080.4964    8023.7971   0.84523576 
   38200    32.910122    5996.9135    946.35933    7038.9954    7985.3547   0.84523576 
   38300    32.631253    6017.3525    938.34022    7021.9285    7960.2687   0.84523576 
   38400    33.161755    5935.2804    953.59525    7020.9969    7974.5922   0.84523576 
   38500    32.857796    5939.7735    944.85467    6975.8529    7920.7076   0.84523576 
   38600    33.218371    5938.2535    955.22332    6958.9394    7914.1627   0.84523576 
   38700    32.979081    5921.8656    948.34231    6915.0223    7863.3646   0.84523576 
   38800    32.954622    5889.1362    947.63899    6875.7813    7823.4202   0.84523576 
   38900    32.787293    5839.8502    942.82727    6868.1677     7810.995   0.84523576 
   39000    33.168295    5859.8465    953.78332    6828.6673    7782.4507   0.84523576 
   39100    33.704493     5838.577    969.20217    6827.9272    7797.1293   0.84523576 
   39200    33.480403    5877.9972    962.75827    6827.5305    7790.2888   0.84523576 
   39300    33.782725    5791.4115    971.45179    6799.9881    7771.4399   0.84523576 
   39400     33.21432    5793.8901    955.10681     6760.953    7716.0598   0.84523576 
   39500    33.618854    5828.8347    966.73954    6738.1247    7704.8643   0.84523576 
   39600    32.857927    5781.0122    944.85843    6724.3177    7669.1761   0.84523576 
   39700    33.584617    5718.3408    965.75503    6711.4936    7677.2487   0.84523576 
   39800    33.900294    5764.5504    974.83261    6683.3275    7658.1602   0.84523576 
   39900    33.227651     5770.693    955.49018    6655.2546    7610.7448   0.84523576 
   40000    33.476931    5823.7769    962.65842     6654.712    7617.3704   0.84523576 
   40100    33.861566    5767.9796    973.71893    6625.6563    7599.3752   0.84523576 
   40200    33.588887    5780.5378    965.87783     6601.973    7567.8508   0.84523576 
   40300    33.576526     5728.041    965.52237    6574.1365    7539.6588   0.84523576 
   40400    33.234573    5706.6742    955.68922    6553.0356    7508.7248   0.84523576 
   40500     33.67106    5724.3148    968.24079     6535.076    7503.3168   0.84523576 
   40600    33.272846     5645.025    956.78979    6519.2567    7476.0465   0.84523576 
   40700    34.032023    5654.3117    978.62057    6493.3905    7472.0111   0.84523576 
   40800    33.635868     5658.318    967.22879    6473.1239    7440.3527   0.84523576 
   40900    34.022676    5653.1922    978.35181    6457.8262     7436.178   0.84523576 
   41000    33.819309    5641.0891     972.5038    6442.0294    7414.5332   0.84523576 
   41100     33.38279    5564.4161    959.95133    6404.4858    7364.4371   0.84523576 
   41200    34.032791    5587.2142    978.64267    6359.5152    7338.1579   0.84523576 
   41300    33.982723    5604.1818    977.20292    6352.6432    7329.8461   0.84523576 
   41400     33.86506    5589.0134    973.81941    6342.1735    7315.9929   0.84523576 
   41500    34.430702    5546.9186    990.08496    6324.6966    7314.7815   0.84523576 
   41600    33.832084    5586.6864    972.87115    6281.9161    7254.7873   0.84523576 
   41700    33.820154     5579.965    972.52811    6270.6777    7243.2058   0.84523576 
   41800    34.149393    5570.0439    981.99566    6264.8013     7246.797   0.84523576 
   41900    34.356788    5542.3133    987.95948    6250.5304    7238.4899   0.84523576 
   42000    33.890534    5534.4687    974.55194    6231.7629    7206.3148   0.84523576 
   42100    33.709195     5508.569    969.33737    6199.8293    7169.1666   0.84523576 
   42200    34.286373     5466.247    985.93465    6193.5784     7179.513   0.84523576 
   42300    34.673084    5518.0248    997.05486    6179.9838    7177.0386   0.84523576 
   42400    34.558431    5487.4247     993.7579    6164.7783    7158.5362   0.84523576 
   42500    34.415066    5499.0714    989.63532    6149.7916    7139.4269   0.84523576 
   42600    34.772101    5422.9309    999.90219    6117.6342    7117.5364   0.84523576 
   42700    34.782183    5489.6118    1000.1921    6098.8667    7099.0588   0.84523576 
   42800    34.678612    5449.6312    997.21383     6077.923    7075.1369   0.84523576 
   42900    34.502211    5393.3193    992.14125    6072.7785    7064.9198   0.84523576 
   43000    34.738036    5432.6457     998.9226    6037.4631    7036.3857   0.84523576 
   43100    35.296437    5398.7427    1014.9799    6029.5835    7044.5634   0.84523576 
   43200    34.673877    5385.1569    997.07766    5998.3954     6995.473   0.84523576 
   43300    34.655443    5379.3215    996.54757    5971.2736    6967.8212   0.84523576 
   43400    35.487281     5357.452    1020.4678    5955.6906    6976.1584   0.84523576 
   43500    35.245021     5344.401    1013.5014    5956.7808    6970.2822   0.84523576 
   43600    34.726312    5316.6454    998.58547    5922.2022    6920.7876   0.84523576 
   43700    34.703394    5320.5946    997.92644    5914.6659    6912.5924   0.84523576 
   43800    35.234251    5290.9236    1013.1917    5888.1756    6901.3673   0.84523576 
   43900    34.581212    5287.8901      994.413     5892.051     6886.464   0.84523576 
   44000    34.782215    5263.7378     1000.193    5859.2738    6859.4668   0.84523576 
   44100     35.19676    5295.7204    1012.1136    5837.9468    6850.0604   0.84523576 
   44200     34.55281    5298.6376    993.59627    5827.9127    6821.5089   0.84523576 
   44300    35.414432    5281.1659     1018.373    5784.0196    6802.3926   0.84523576 
   44400    35.425261    5168.4545    1018.6844    5761.9133    6780.5977   0.84523576 
   44500    35.393847    5231.0163     1017.781    5752.0465    6769.8276   0.84523576 
   44600    35.200224    5170.5453    1012.2132    5749.2287    6761.4419   0.84523576 
   44700    35.845519    5158.4159    1030.7692    5725.9338     6756.703   0.84523576 
   44800    34.838563    5162.2084    1001.8133     5713.601    6715.4144   0.84523576 
   44900    34.722657    5171.4564    998.48038    5706.6749    6705.1553   0.84523576 
   45000    35.491453    5136.0339    1020.5878    5667.0464    6687.6342   0.84523576 
   45100    35.852944    5145.7396    1030.9828    5682.6974    6713.6802   0.84523576 
   45200    35.317158    5152.4977    1015.5758    5647.0647    6662.6405   0.84523576 
   45300    36.512347     5127.712    1049.9445    5652.7907    6702.7352   0.84523576 
   45400    35.613699    5137.6381     1024.103    5657.6004    6681.7034   0.84523576 
   45500     35.93417    5141.4693    1033.3185    5601.3109    6634.6294   0.84523576 
   45600    36.117389    5140.0259    1038.5871    5594.9612    6633.5484   0.84523576 
   45700    35.220444    5014.0639    1012.7947    5551.0672    6563.8618   0.84523576 
   45800    36.143307    5026.2381    1039.3324    5522.5215    6561.8539   0.84523576 
   45900    36.303555    5034.9588    1043.9405    5494.1914    6538.1319   0.84523576 
   46000    35.783819    5060.8878     1028.995    5507.4973    6536.4923   0.84523576 
   46100    36.547166    4998.9451    1050.9457    5476.4388    6527.3845   0.84523576 
   46200    35.841512    5033.3285     1030.654    5474.5259    6505.1799   0.84523576 
   46300    35.963846    4988.8862    1034.1718    5421.9163    6456.0881   0.84523576 
   46400    36.245273     4960.422    1042.2645    5431.2727    6473.5372   0.84523576 
   46500    36.376879    4953.2135     1046.049    5394.6575    6440.7065   0.84523576 
   46600    35.891344    4863.5927     1032.087    5394.3187    6426.4057   0.84523576 
   46700    35.669434    4961.6156    1025.7058    5361.5919    6387.2977   0.84523576 
   46800    36.298907    4946.8841    1043.8068    5349.6217    6393.4285   0.84523576 
   46900    36.316827    4954.1312    1044.3221    5316.1677    6360.4898   0.84523576 
   47000    36.048756    4961.5869    1036.6135    5294.1231    6330.7366   0.84523576 
   47100    36.531841    4892.5593     1050.505    5297.8226    6348.3277   0.84523576 
   47200    36.565674    4921.4408    1051.4779    5273.9399    6325.4179   0.84523576 
   47300     36.66566    4911.8061    1054.3531    5267.6186    6321.9717   0.84523576 
   47400    36.005818    4875.7232    1035.3788    5250.1861    6285.5649   0.84523576 
   47500    36.678448    4879.5907    1054.7209    5234.2223    6288.9432   0.84523576 
   47600    36.850265    4902.9773    1059.6616    5230.1563    6289.8178   0.84523576 
   47700    36.770178    4805.2747    1057.3586     5213.126    6270.4846   0.84523576 
   47800    36.499264    4839.5835    1049.5683    5184.8993    6234.4676   0.84523576 
   47900    36.537398    4794.3885    1050.6648     5194.264    6244.9288   0.84523576 
   48000    36.091393    4834.5627    1037.8396    5147.6577    6185.4973   0.84523576 
   48100    36.319016    4840.0493    1044.3851     5162.864    6207.2491   0.84523576 
   48200    36.547493    4798.4624    1050.9551    5126.9958    6177.9509   0.84523576 
   48300    36.451314    4790.6764    1048.1894    5111.2252    6159.4146   0.84523576 
   48400    36.925238    4802.5719    1061.8175    5100.7453    6162.5628   0.84523576 
   48500    36.766089    4763.5541     1057.241    5111.0421    6168.2832   0.84523576 
   48600    37.264596    4739.1342     1071.576    5069.6469     6141.223   0.84523576 
   48700    36.955244    4751.0145    1062.6804    5054.3381    6117.0185   0.84523576 
   48800    37.069701    4703.5117    1065.9717    5063.2308    6129.2025   0.84523576 
   48900    36.687085    4737.6492    1054.9692    5052.5344    6107.5036   0.84523576 
   49000    36.715417     4741.182    1055.7839    5022.7412    6078.5251   0.84523576 
   49100    37.069294    4665.6932      1065.96    5015.1247    6081.0846   0.84523576 
   49200    37.452239    4735.0652    1076.9719    5006.3668    6083.3387   0.84523576 
   49300    38.315778    4734.6711    1101.8037     4987.276    6089.0797   0.84523576 
   49400    37.487581    4709.8719    1077.9882    4976.2218      6054.21   0.84523576 
   49500    37.107699    4642.0733    1067.0643    4956.9154    6023.9798   0.84523576 
   49600    37.102809    4675.2305    1066.9237    4946.7158    6013.6396   0.84523576 
   49700    36.779235    4650.7965    1057.6191    4920.5823    5978.2013   0.84523576 
   49800    37.117101    4634.1069    1067.3347    4927.9531    5995.2878   0.84523576 
   49900    36.942699    4680.3108    1062.3196    4924.6348    5986.9544   0.84523576 
   50000    37.761646    4589.1647    1085.8692    4907.5392    5993.4084   0.84523576 
   50100    37.089972    4632.4523    1066.5546    4897.8363    5964.3909   0.84523576 
   50200    37.446971    4637.5711    1076.8204    4879.6496      5956.47   0.84523576 
   50300    37.455022    4589.1928    1077.0519    4872.1524    5949.2044   0.84523576 
   50400    37.925546     4635.458    1090.5822    4847.6882    5938.2705   0.84523576 
   50500    37.540292    4573.8682    1079.5039    4853.5611     5933.065   0.84523576 
   50600    38.029287    4586.3701    1093.5654    4821.3669    5914.9323   0.84523576 
   50700    37.473982    4568.0731    1077.5971    4822.2572    5899.8543   0.84523576 
   50800    37.958409    4521.3947    1091.5272    4797.2874    5888.8146   0.84523576 
   50900    38.486333     4601.244    1106.7082    4794.6319    5901.3401   0.84523576 
   51000    37.619041    4594.5236    1081.7684    4795.8303    5877.5988   0.84523576 
   51100    37.722969    4513.7188     1084.757    4765.2674    5850.0244   0.84523576 
   51200     38.27744    4533.0772    1100.7013    4774.8136    5875.5148   0.84523576 
   51300    37.937298    4551.4206    1090.9202    4767.8757    5858.7959   0.84523576 
   51400    38.008581    4528.6678      1092.97    4733.0551    5826.0251   0.84523576 
   51500    38.248426    4482.5695     1099.867    4729.8494    5829.7163   0.84523576 
   51600    37.919568      4457.87    1090.4104    4726.1362    5816.5465   0.84523576 
   51700    39.083116    4447.1369    1123.8692    4713.9422    5837.8114   0.84523576 
   51800    37.996467    4455.2018    1092.6216    4696.8927    5789.5143   0.84523576 
   51900    38.134415    4482.6192    1096.5885    4690.1805    5786.7689   0.84523576 
   52000    38.111589    4491.8421    1095.9321    4666.5437    5762.4757   0.84523576 
   52100    38.283358    4464.2364    1100.8714    4649.7757    5750.6472   0.84523576 
   52200    37.993891    4479.9288    1092.5476    4651.0525       5743.6   0.84523576 
   52300    38.348425    4447.9393    1102.7425    4633.0768    5735.8193   0.84523576 
   52400    38.166736    4479.1606    1097.5179    4637.0954    5734.6133   0.84523576 
   52500    37.805353    4468.8113     1087.126    4628.1177    5715.2437   0.84523576 
   52600    38.147646    4397.4811    1096.9689    4617.2377    5714.2066   0.84523576 
   52700    38.656589    4404.7402     1111.604    4607.9686    5719.5726   0.84523576 
   52800     38.00389    4409.4206    1092.8351    4591.8723    5684.7074   0.84523576 
   52900    38.045002    4401.1996    1094.0173    4584.1465    5678.1638   0.84523576 
   53000    38.894726    4449.3075    1118.4519    4568.9053    5687.3572   0.84523576 
   53100    39.241758    4403.6125    1128.4311    4564.4381    5692.8692   0.84523576 
   53200    39.024308    4351.0696    1122.1781    4538.8467    5661.0248   0.84523576 
   53300    39.283501    4387.9304    1129.6314    4539.6941    5669.3256   0.84523576 
   53400    39.204532    4311.2839    1127.3606    4529.2512    5656.6119   0.84523576 
   53500      39.6867    4375.2923    1141.2258    4496.3855    5637.6112   0.84523576 
   53600    38.468937    4354.2832    1106.2079    4483.5766    5589.7845   0.84523576 
   53700     39.28132    4348.1607    1129.5687    4466.2662    5595.8349   0.84523576 
   53800    39.210859    4276.8838    1127.5425    4434.8571    5562.3996   0.84523576 
   53900    38.712428    4358.4883    1113.2097    4438.7111    5551.9208   0.84523576 
   54000      39.4353    4335.3133    1133.9966    4425.4121    5559.4086   0.84523576 
   54100    38.436242    4335.1284    1105.2677    4393.1821    5498.4498   0.84523576 
   54200    39.089489     4318.021    1124.0524    4384.6866     5508.739   0.84523576 
   54300    39.530336      4271.72    1136.7294    4393.0031    5529.7325   0.84523576 
   54400    39.114373    4329.8222     1124.768    4399.5346    5524.3026   0.84523576 
   54500     39.33194    4256.0319    1131.0243    4386.7246     5517.749   0.84523576 
   54600    39.739046    4258.5123     1142.731    4384.0236    5526.7547   0.84523576 
   54700    39.478558    4297.2681    1135.2405    4335.8674    5471.1078   0.84523576 
   54800    39.518313    4242.3069    1136.3836    4339.1188    5475.5025   0.84523576 
   54900    39.152916    4184.6695    1125.8763    4321.8611    5447.7375   0.84523576 
   55000    39.528696    4262.8388    1136.6822    4311.9471    5448.6293   0.84523576 
   55100    39.792099    4209.8357    1144.2566     4286.525    5430.7816   0.84523576 
   55200    39.279067    4237.6515    1129.5039    4312.4555    5441.9595   0.84523576 
   55300     40.39883    4248.9271    1161.7037    4277.9056    5439.6093   0.84523576 
   55400    39.808525    4187.3498     1144.729     4285.233    5429.9619   0.84523576 
   55500     40.16089    4198.8787    1154.8615    4261.9417    5416.8032   0.84523576 
   55600    39.822465    4168.1083    1145.1298    4259.6366    5404.7664   0.84523576 
   55700    39.851728    4118.7384    1145.9713    4241.8586    5387.8299   0.84523576 
   55800     39.81713    4156.6444    1144.9764    4260.0291    5405.0055   0.84523576 
   55900    39.939327    4191.6517    1148.4903    4237.0969    5385.5872   0.84523576 
   56000    39.738965    4219.7815    1142.7287    4253.7357    5396.4644   0.84523576 
   56100     39.50212    4141.5502     1135.918    4227.1525    5363.0705   0.84523576 
   56200    40.284399     4115.608    1158.4131    4243.4484    5401.8615   0.84523576 
   56300    40.170192    4085.7618     1155.129    4208.2101    5363.3391   0.84523576 
   56400    39.352072    4151.9651    1131.6032     4188.701    5320.3043   0.84523576 
   56500     40.22885    4119.3113    1156.8158    4194.7368    5351.5526   0.84523576 
   56600    40.131519    4199.0583    1154.0169    4180.8976    5334.9145   0.84523576 
   56700    40.012151    4086.0465    1150.5844    4190.3885    5340.9729   0.84523576 
   56800    39.905537    4099.0161    1147.5186    4167.3838    5314.9024   0.84523576 
   56900    39.981572    4110.1809    1149.7051    4134.2345    5283.9396   0.84523576 
   57000    39.383515    4027.9653    1132.5074      4119.67    5252.1774   0.84523576 
   57100    39.812285    4067.9293    1144.8371    4121.5235    5266.3606   0.84523576 
   57200    40.258385    4056.4862    1157.6651    4087.0183    5244.6834   0.84523576 
   57300    39.693293    4055.4002    1141.4154    4100.2517    5241.6671   0.84523576 
   57400    39.824412    4010.3768    1145.1858    4085.3441    5230.5299   0.84523576 
   57500     40.31222    4012.3617    1159.2132    4083.6448    5242.8579   0.84523576 
   57600    40.403518    4035.6426    1161.8385     4051.888    5213.7265   0.84523576 
   57700    40.433528    4037.8622    1162.7015    4036.6754    5199.3769   0.84523576 
   57800    40.515488     4049.301    1165.0583    4040.7989    5205.8572   0.84523576 
   57900    40.000208    4080.3692     1150.241    4055.0139    5205.2548   0.84523576 
   58000     41.24885    3962.7299    1186.1468    4016.3929    5202.5396   0.84523576 
   58100    40.693529     4070.025     1170.178    4012.0528    5182.2308   0.84523576 
   58200    40.824457    3990.0455     1173.943    3995.5423    5169.4853   0.84523576 
   58300    40.763399    3963.8082    1172.1872    3981.2056    5153.3928   0.84523576 
   58400    40.663003    3992.8909    1169.3002    3977.0426    5146.3428   0.84523576 
   58500    40.461355    3982.6536    1163.5016    4002.3295    5165.8311   0.84523576 
   58600    40.670357    4011.2224    1169.5117    3992.3064    5161.8181   0.84523576 
   58700    40.463879    3965.8907    1163.5742    3967.6397    5131.2139   0.84523576 
   58800    40.827836     3945.438    1174.0401    3964.2281    5138.2683   0.84523576 
   58900    40.839822    3995.3267    1174.3848    3956.1916    5130.5764   0.84523576 
   59000    40.921458    3958.3785    1176.7323    3932.3132    5109.0455   0.84523576 
   59100    41.272567     3882.641    1186.8288     3905.071    5091.8997   0.84523576 
   59200    40.719218    3902.8464    1170.9167    3918.7207    5089.6374   0.84523576 
   59300    40.280353    3886.1191    1158.2968    3926.2966    5084.5934   0.84523576 
   59400    41.016509    3893.9757    1179.4656    3906.2495    5085.7151   0.84523576 
   59500    41.082169    3941.5497    1181.3537     3886.013    5067.3667   0.84523576 
   59600    41.448688    3960.9739    1191.8933    3878.3651    5070.2584   0.84523576 
   59700     40.67104    3927.0776    1169.5313    3864.7736    5034.3049   0.84523576 
   59800    41.296029    3964.0976    1187.5034    3870.0754    5057.5789   0.84523576 
   59900    41.136788     3821.314    1182.9243    3862.3613    5045.2856   0.84523576 
   60000    40.490785    3902.9107    1164.3479    3839.4711     5003.819   0.84523576 
   60100     40.51184    3855.7513    1164.9534    3845.8391    5010.7925   0.84523576 
   60200     41.06644    3926.1375    1180.9014    3842.2561    5023.1575   0.84523576 
   60300    41.188304    3863.2996    1184.4057    3851.6928    5036.0985   0.84523576 
   60400    40.637789         3806    1168.5752    3840.2669    5008.8421   0.84523576 
   60500    41.250574    3935.4917    1186.1963    3836.2938    5022.4902   0.84523576 
   60600    41.584043    3833.2893    1195.7855     3801.216    4997.0015   0.84523576 
   60700    41.694008    3839.2861    1198.9477     3809.564    5008.5117   0.84523576 
   60800    41.809791    3841.5863    1202.2771    3795.0128    4997.2899   0.84523576 
   60900    41.925028    3783.3761    1205.5909    3752.6974    4958.2882   0.84523576 
   61000    41.503788    3852.8224    1193.4777    3768.0394    4961.5171   0.84523576 
   61100    41.965354    3814.0892    1206.7505     3777.928    4984.6785   0.84523576 
   61200    41.880209    3829.8867     1204.302    3789.6147    4993.9167   0.84523576 
   61300    40.971648    3792.9302    1178.1756    3779.1985    4957.3741   0.84523576 
   61400    41.901158    3789.1505    1204.9044    3750.7836     4955.688   0.84523576 
   61500    41.876868    3833.2929     1204.206    3764.8965    4969.1024   0.84523576 
   61600    42.407672     3820.278    1219.4697    3746.4972    4965.9669   0.84523576 
   61700    42.119085    3818.4222    1211.1711    3711.9857    4923.1568   0.84523576 
   61800    42.737647    3814.6898    1228.9584    3763.1685    4992.1269   0.84523576 
   61900    41.676789    3815.7991    1198.4525    3711.8308    4910.2833   0.84523576 
   62000    42.152093    3782.3849    1212.1203    3683.5703    4895.6906   0.84523576 
   62100     42.41134    3793.5971    1219.5752    3721.5685    4941.1437   0.84523576 
   62200    41.825418    3725.9538    1202.7265    3689.5203    4892.2468   0.84523576 
   62300    41.851556    3739.5238    1203.4781    3690.8751    4894.3532   0.84523576 
   62400    42.409979    3753.6254     1219.536    3663.3455    4882.8815   0.84523576 
   62500    43.272306    3737.3433     1244.333    3647.6395    4891.9725   0.84523576 
   62600    41.786841    3699.4176    1201.6172    3648.4655    4850.0827   0.84523576 
   62700    42.604819    3723.5081    1225.1388    3648.6175    4873.7564   0.84523576 
   62800    41.983485    3733.2359    1207.2718    3668.5068    4875.7786   0.84523576 
   62900    41.754621    3714.2522    1200.6907    3634.6996    4835.3902   0.84523576 
   63000    42.395659     3743.163    1219.1242    3621.6831    4840.8074   0.84523576 
   63100    42.804582    3699.4145    1230.8832    3635.7266    4866.6097   0.84523576 
   63200    43.169126    3694.3057     1241.366    3592.8229    4834.1889   0.84523576 
   63300    42.452076    3766.0652    1220.7466    3601.0312    4821.7778   0.84523576 
   63400    43.082391     3654.128    1238.8718    3593.7945    4832.6664   0.84523576 
   63500    41.865955    3630.0454    1203.8921    3578.0654    4781.9576   0.84523576 
   63600    42.425605    3704.1781    1219.9854    3564.6803    4784.6657   0.84523576 
   63700    42.752416    3685.4048    1229.3831    3574.9662    4804.3493   0.84523576 
   63800    42.204552    3664.4319    1213.6288    3571.1258    4784.7546   0.84523576 
   63900    42.334612    3565.0262    1217.3688     3558.449    4775.8178   0.84523576 
   64000    42.241785    3609.7441    1214.6995    3559.3803    4774.0798   0.84523576 
   64100    42.378863    3709.4161    1218.6413    3531.6754    4750.3166   0.84523576 
   64200    42.930449    3637.0142    1234.5026    3516.3054     4750.808   0.84523576 
   64300    42.509965    3655.3036    1222.4112      3521.75    4744.1613   0.84523576 
   64400    42.601503    3746.7637    1225.0435    3529.3299    4754.3734   0.84523576 
   64500    43.540162    3698.0461    1252.0354    3530.4409    4782.4764   0.84523576 
   64600     42.85861    3609.4823    1232.4368     3511.125    4743.5618   0.84523576 
   64700    43.114855    3666.0654    1239.8054    3499.5993    4739.4047   0.84523576 
   64800    43.396979    3611.6732    1247.9181    3506.3115    4754.2296   0.84523576 
   64900    43.159126    3576.6824    1241.0784    3470.5874    4711.6658   0.84523576 
   65000    42.635379    3675.8615    1226.0176    3500.6245    4726.6421   0.84523576 
   65100    43.165154     3564.906    1241.2517    3488.4805    4729.7322   0.84523576 
   65200    42.792593    3638.4371    1230.5384    3466.2063    4696.7447   0.84523576 
   65300    42.689992    3621.8229    1227.5881     3511.188    4738.7761   0.84523576 
   65400    43.378943    3611.6411    1247.3995    3474.1742    4721.5737   0.84523576 
   65500    43.952161    3654.2737    1263.8828    3472.9621    4736.8449   0.84523576 
   65600    42.916104      3622.42    1234.0901    3477.9871    4712.0772   0.84523576 
   65700    43.274477    3579.4831    1244.3954    3485.7685     4730.164   0.84523576 
   65800    43.538266    3475.2508    1251.9809    3467.5802    4719.5611   0.84523576 
   65900    43.227143    3668.1301    1243.0343     3458.492    4701.5263   0.84523576 
   66000    42.907464    3576.5992    1233.8417    3443.1281    4676.9698   0.84523576 
   66100     42.98057    3601.0729    1235.9439    3449.6382    4685.5821   0.84523576 
   66200    43.258775      3612.39    1243.9439    3417.0725    4661.0164   0.84523576 
   66300    43.580398    3558.5462    1253.1925     3437.637    4690.8295   0.84523576 
   66400    44.078196    3608.9782    1267.5071    3429.7737    4697.2808   0.84523576 
   66500    43.794313    3579.1693    1259.3438    3419.4208    4678.7646   0.84523576 
   66600    44.175038    3584.6481    1270.2918    3421.7421     4692.034   0.84523576 
   66700    43.197717    3560.4667    1242.1881    3428.2458     4670.434   0.84523576 
   66800    43.444167    3547.6413     1249.275    3422.0522    4671.3272   0.84523576 
   66900    43.680715    3527.7433    1256.0772    3415.6336    4671.7108   0.84523576 
   67000    43.572163    3499.8589    1252.9556    3391.4943      4644.45   0.84523576 
   67100     43.44033    3527.9583    1249.1647    3407.9384    4657.1031   0.84523576 
   67200    43.543456    3465.2927    1252.1301    3415.4165    4667.5466   0.84523576 
   67300    43.808139       3533.4    1259.7414    3395.7131    4655.4544   0.84523576 
   67400    44.190172    3466.1995     1270.727    3386.0374    4656.7644   0.84523576 
   67500    44.322869    3462.6711    1274.5428    3405.2973    4679.8402   0.84523576 
   67600    43.882546    3501.3901     1261.881    3372.8565    4634.7375   0.84523576 
   67700    44.518545    3498.2344    1280.1697    3367.5858    4647.7555   0.84523576 
   67800    43.855852    3516.3172    1261.1134    3361.5921    4622.7055   0.84523576 
   67900    43.644126    3527.4728     1255.025    3365.1153    4620.1403   0.84523576 
   68000      43.8483    3500.6443    1260.8962    3358.9386    4619.8348   0.84523576 
   68100    44.109318    3507.3545     1268.402    3348.3892    4616.7912   0.84523576 
   68200    44.205287    3443.1333    1271.1617    3346.9359    4618.0976   0.84523576 
   68300    43.561494    3552.9473    1252.6489    3342.9444    4595.5933   0.84523576 
   68400    43.846137    3450.7428     1260.834    3341.0621    4601.8961   0.84523576 
   68500    43.588759    3383.4046    1253.4329    3306.3779    4559.8108   0.84523576 
   68600    43.290688    3485.4527    1244.8616     3309.266    4554.1276   0.84523576 
   68700    45.472437    3466.0894    1307.5997    3301.4226    4609.0223   0.84523576 
   68800    44.271946    3455.8272    1273.0785    3311.8373    4584.9158   0.84523576 
   68900    44.207065    3441.0328    1271.2128    3307.1095    4578.3223   0.84523576 
   69000    44.726485    3500.8804    1286.1492    3310.4236    4596.5728   0.84523576 
   69100    44.487282    3484.5677    1279.2707    3321.4983    4600.7691   0.84523576 
   69200    44.535376    3428.3457    1280.6537    3284.2804    4564.9341   0.84523576 
   69300    44.753385    3442.1378    1286.9227     3281.285    4568.2077   0.84523576 
   69400    44.608665    3487.4328    1282.7612    3296.6352    4579.3964   0.84523576 
   69500    44.022486    3360.8021    1265.9051    3276.8005    4542.7056   0.84523576 
   69600    44.111822    3382.6218     1268.474    3270.1474    4538.6214   0.84523576 
   69700     43.95244    3379.3888    1263.8908    3248.0388    4511.9297   0.84523576 
   69800    44.610911    3455.6728    1282.8258    3261.4812    4544.3069   0.84523576 
   69900    45.832299    3411.9571    1317.9478    3278.1649    4596.1128   0.84523576 
   70000    44.823251    3477.7787    1288.9318    3235.0505    4523.9823   0.84523576 
   70100    44.812718    3436.0631    1288.6289    3246.4251     4535.054   0.84523576 
   70200    45.434899    3354.8779    1306.5203    3222.6406    4529.1608   0.84523576 
   70300    44.568117    3390.2415    1281.5952     3223.246    4504.8412   0.84523576 
   70400    44.548527    3335.9441    1281.0319    3188.6598    4469.6916   0.84523576 
   70500    46.490947    3414.7692    1336.8878    3227.9876    4564.8755   0.84523576 
   70600    45.639424    3515.4952    1312.4016    3215.0863    4527.4878   0.84523576 
   70700    44.860206    3356.2575    1289.9945    3217.7833    4507.7778   0.84523576 
   70800    44.979212    3372.0157    1293.4166    3191.3142    4484.7308   0.84523576 
   70900    45.160769    3354.3011    1298.6374    3181.6764    4480.3138   0.84523576 
   71000    44.613372     3375.817    1282.8965    3180.6765     4463.573   0.84523576 
   71100    45.176711    3386.7165    1299.0958    3184.1836    4483.2794   0.84523576 
   71200    44.652921    3357.6026    1284.0338     3198.214    4482.2478   0.84523576 
   71300    45.018063    3338.1745    1294.5338    3140.7229    4435.2567   0.84523576 
   71400    45.205556    3308.0547    1299.9253    3157.5421    4457.4674   0.84523576 
   71500     45.77343    3354.1714     1316.255    3158.8413    4475.0963   0.84523576 
   71600     45.66609    3333.4109    1313.1683    3136.7989    4449.9673   0.84523576 
   71700    44.899158    3329.2345    1291.1145    3158.1592    4449.2738   0.84523576 
   71800    44.685242    3301.9174    1284.9632    3128.4513    4413.4145   0.84523576 
   71900    44.874192    3332.1412    1290.3966    3117.0515    4407.4482   0.84523576 
   72000    45.837152    3365.3797    1318.0874    3113.4902    4431.5776   0.84523576 
   72100    44.812358    3326.9752    1288.6185    3132.0992    4420.7177   0.84523576 
   72200    46.091577    3271.5201    1325.4036    3121.9573    4447.3609   0.84523576 
   72300    44.967298    3326.2481     1293.074    3123.8182    4416.8922   0.84523576 
   72400    45.426045    3288.1801    1306.2656    3112.2877    4418.5534   0.84523576 
   72500    46.119723    3301.1503     1326.213    3103.3017    4429.5146   0.84523576 
   72600     45.55599    3283.8586    1310.0023    3129.4427     4439.445   0.84523576 
   72700    45.589562    3298.9868    1310.9677    3119.4406    4430.4084   0.84523576 
   72800    45.455299    3225.5301    1307.1069    3103.0127    4410.1196   0.84523576 
   72900    45.649472     3317.251    1312.6905     3112.164    4424.8545   0.84523576 
   73000    46.053513    3255.8626     1324.309    3058.0509    4382.3599   0.84523576 
   73100    46.509332    3337.8587    1337.4165    3082.0995     4419.516   0.84523576 
   73200    45.223989    3267.9223    1300.4554    3063.8171    4364.2724   0.84523576 
   73300      46.0827     3261.185    1325.1484    3076.6669    4401.8152   0.84523576 
   73400    45.704789    3211.0397    1314.2812    3042.5763    4356.8575   0.84523576 
   73500    47.137557    3247.7547    1355.4817    3072.9898    4428.4715   0.84523576 
   73600    45.448535     3181.054    1306.9124    3032.9682    4339.8806   0.84523576 
   73700     45.97275    3184.8943    1321.9866     3053.226    4375.2126   0.84523576 
   73800    46.705569    3244.1322    1343.0595    3072.0541    4415.1136   0.84523576 
   73900    46.114994    3238.1553     1326.077    3049.7045    4375.7814   0.84523576 
   74000    45.937238    3257.6613    1320.9654    3044.5821    4365.5476   0.84523576 
   74100    45.204878    3218.2423    1299.9058    3028.5033    4328.4092   0.84523576 
   74200    45.398164    3247.1658    1305.4639    3026.4366    4331.9005   0.84523576 
   74300    45.680063    3254.3306    1313.5702    3004.2855    4317.8556   0.84523576 
   74400    46.633782    3165.2349    1340.9952    3007.1586    4348.1538   0.84523576 
   74500    45.851168    3178.3558    1318.4904    2985.7291    4304.2196   0.84523576 
   74600    45.722665     3157.211    1314.7952    2973.7186    4288.5138   0.84523576 
   74700    45.797833    3217.2032    1316.9567    2993.4057    4310.3624   0.84523576 
   74800    47.589262    3070.7613    1368.4708    2967.7952     4336.266   0.84523576 
   74900    46.807345    3200.0179    1345.9861    2982.5539    4328.5401   0.84523576 
   75000    46.949651    3155.8323    1350.0783    2963.7031    4313.7814   0.84523576 
   75100    46.116736    3185.5116    1326.1271    2962.0735    4288.2006   0.84523576 
   75200    46.424384    3200.0149    1334.9738    2969.8644    4304.8381   0.84523576 
   75300     47.16057    3241.8413    1356.1434    2941.7562    4297.8997   0.84523576 
   75400    46.301619    3145.3103    1331.4436    2952.5539    4283.9975   0.84523576 
   75500    46.899281    3143.1153    1348.6298    2959.1803    4307.8101   0.84523576 
   75600    46.700618     3094.025    1342.9171    2901.6126    4244.5297   0.84523576 
   75700    46.116072    3157.3153     1326.108    2926.5851    4252.6931   0.84523576 
   75800    46.521434    3145.3312    1337.7645    2921.6074    4259.3719   0.84523576 
   75900      47.1459    3158.8729    1355.7216    2909.8729    4265.5945   0.84523576 
   76000    46.809066    3162.9396    1346.0356    2909.9402    4255.9759   0.84523576 
   76100     47.41248    3069.7993    1363.3873    2906.1159    4269.5032   0.84523576 
   76200    45.832249    3127.4528    1317.9464    2884.4784    4202.4248   0.84523576 
   76300     46.69284     3129.645    1342.6934    2911.8811    4254.5745   0.84523576 
   76400    46.921364    3131.6653    1349.2649    2924.6622     4273.927   0.84523576 
   76500    47.585341    3121.0097    1368.3581    2878.8647    4247.2228   0.84523576 
   76600    46.964379    3105.7718    1350.5018    2889.2554    4239.7572   0.84523576 
   76700    47.322944    3081.4012    1360.8126    2889.4703    4250.2829   0.84523576 
   76800    47.250394    3089.8895    1358.7264    2865.9258    4224.6522   0.84523576 
   76900    46.200622    3088.7762    1328.5393    2862.9767     4191.516   0.84523576 
   77000    47.139946    3049.9576    1355.5504    2859.6856     4215.236   0.84523576 
   77100    46.663598    3068.3565    1341.8526    2851.3788    4193.2314   0.84523576 
   77200    47.318665    2998.2216    1360.6896    2845.7888    4206.4784   0.84523576 
   77300    47.353757    3018.6363    1361.6987    2851.7549    4213.4536   0.84523576 
   77400     47.31478    3111.1137    1360.5779    2799.5367    4160.1146   0.84523576 
   77500    46.894464     3125.749    1348.4913    2830.9995    4179.4908   0.84523576 
   77600    47.076384    3106.3237    1353.7226    2821.2666    4174.9892   0.84523576 
   77700    47.622729    3124.4894    1369.4332    2831.4306    4200.8638   0.84523576 
   77800    47.586577    3118.3245    1368.3936    2819.4287    4187.8223   0.84523576 
   77900     47.72933    3100.0824    1372.4986     2810.657    4183.1556   0.84523576 
   78000    48.105169    3022.3967    1383.3062    2824.8899    4208.1961   0.84523576 
   78100    47.807136    3135.0494     1374.736    2812.4667    4187.2027   0.84523576 
   78200    46.869301    3057.3947    1347.7677    2810.3626    4158.1303   0.84523576 
   78300    47.184016    3133.9834    1356.8176    2773.7209    4130.5385   0.84523576 
   78400    46.719243    3085.6007    1343.4527    2792.8218    4136.2745   0.84523576 
   78500      47.9634     2979.415    1379.2295    2766.2847    4145.5143   0.84523576 
   78600    47.615572    3035.3591    1369.2274    2763.3228    4132.5503   0.84523576 
   78700    47.406885    3085.0704    1363.2264    2766.0245    4129.2509   0.84523576 
   78800    48.138104    2968.3261    1384.2533    2811.4187     4195.672   0.84523576 
   78900    47.713013    3020.3897    1372.0294    2752.6827    4124.7121   0.84523576 
   79000    48.047423    3081.0918    1381.6457    2767.8352    4149.4809   0.84523576 
   79100    47.403443    2965.9085    1363.1275     2761.435    4124.5625   0.84523576 
   79200    47.921706    2994.4499    1378.0306    2733.7719    4111.8025   0.84523576 
   79300    47.921986    3050.6733    1378.0386    2730.2285    4108.2671   0.84523576 
   79400     47.87703    3018.4537    1376.7459    2756.0631    4132.8089   0.84523576 
   79500    47.876818     3018.096    1376.7398    2749.8089    4126.5487   0.84523576 
   79600    48.209467    2915.3739    1386.3054    2762.8364    4149.1418   0.84523576 
   79700     48.20263     3039.046    1386.1088    2728.7246    4114.8334   0.84523576 
   79800    47.168798    2981.2365      1356.38    2740.3723    4096.7524   0.84523576 
   79900    47.208196     3009.211     1357.513    2710.2615    4067.7744   0.84523576 
   80000    47.179071    2937.2581    1356.6754    2715.2244    4071.8998   0.84523576 
   80100    48.417225     2954.858    1392.2796     2733.315    4125.5947   0.84523576 
   80200    48.375205    3002.5739    1391.0713    2706.0575    4097.1289   0.84523576 
   80300    48.110092     2944.248    1383.4478    2712.4798    4095.9276   0.84523576 
   80400    48.337259    2994.3649    1389.9802    2707.1791    4097.1592   0.84523576 
   80500    48.213197    2932.4879    1386.4126     2719.821    4106.2337   0.84523576 
   80600    48.492462    2940.5989    1394.4431    2689.6976    4084.1407   0.84523576 
   80700    48.731077    2981.0907    1401.3047     2711.142    4112.4467   0.84523576 
   80800    48.293225    2955.0065    1388.7139    2676.1131     4064.827   0.84523576 
   80900    48.754158    2932.5573    1401.9685    2708.2251    4110.1936   0.84523576 
   81000    48.213357    2909.7304    1386.4172     2695.409    4081.8262   0.84523576 
   81100    49.049035    2969.9041    1410.4479    2681.4491     4091.897   0.84523576 
   81200    48.021938    2968.0666    1380.9128    2680.8888    4061.8016   0.84523576 
   81300    48.123785    2958.4465    1383.8415    2668.5549    4052.3964   0.84523576 
   81400    48.573037    2926.1883    1396.7602    2662.9064    4059.6665   0.84523576 
   81500    49.145906    2906.3357    1413.2335    2654.1654    4067.3989   0.84523576 
   81600    48.489931    2974.0187    1394.3704    2684.2533    4078.6237   0.84523576 
   81700    48.680472    2974.1048    1399.8496    2664.3973    4064.2468   0.84523576 
   81800    48.868047    2922.5607    1405.2434    2653.4731    4058.7166   0.84523576 
   81900    48.597666    2946.0494    1397.4684    2653.9002    4051.3686   0.84523576 
   82000    48.757481    2987.4426     1402.064    2693.0072    4095.0712   0.84523576 
   82100    49.433624    2896.6272    1421.5071    2641.1157    4062.6228   0.84523576 
   82200    49.148528    2932.3535    1413.3089    2648.2764    4061.5853   0.84523576 
   82300    49.449191    2872.1575    1421.9547    2621.8549    4043.8096   0.84523576 
   82400    48.854636    2981.8612    1404.8578    2637.2177    4042.0755   0.84523576 
   82500     48.70734    2878.6443    1400.6222    2639.2293    4039.8515   0.84523576 
   82600    48.646513    2869.9305     1398.873     2628.941     4027.814   0.84523576 
   82700    48.514981    2949.7114    1395.0907    2630.0038    4025.0945   0.84523576 
   82800    48.851679    2878.9852    1404.7728    2597.5242    4002.2969   0.84523576 
   82900    48.970743      2925.61    1408.1965     2598.089    4006.2856   0.84523576 
   83000    49.394579    2913.9178    1420.3843    2614.7463    4035.1306   0.84523576 
   83100    49.302135    2854.7977     1417.726    2578.4744    3996.2004   0.84523576 
   83200    49.173018    2888.6962    1414.0131    2607.1976    4021.2108   0.84523576 
   83300     49.64039    2863.5923    1427.4528    2585.0002     4012.453   0.84523576 
   83400    49.054373    2914.7728    1410.6014    2592.2017    4002.8031   0.84523576 
   83500    49.435553    2870.4828    1421.5626    2622.2181    4043.7807   0.84523576 
   83600    48.681766     2829.379    1399.8867    2609.2603    4009.1471   0.84523576 
   83700     49.06713    2852.8778    1410.9682    2565.1918      3976.16   0.84523576 
   83800    49.480168    2869.2212    1422.8455    2577.3922    4000.2377   0.84523576 
   83900    50.430156    2828.6275    1450.1632    2576.8735    4027.0367   0.84523576 
   84000    49.722136    2810.4979    1429.8035    2584.3396    4014.1431   0.84523576 
   84100    50.460784    2871.4899     1451.044    2566.1201    4017.1641   0.84523576 
   84200    50.181992    2868.8963    1443.0271    2581.0852    4024.1123   0.84523576 
   84300     49.71501    2870.2903    1429.5986     2563.204    3992.8026   0.84523576 
   84400    49.923012    2873.7777    1435.5799    2535.0296    3970.6094   0.84523576 
   84500    50.043037    2833.1254    1439.0313    2531.8878    3970.9191   0.84523576 
   84600    49.527346    2813.1823    1424.2021    2539.5458     3963.748   0.84523576 
   84700    49.133008    2870.7364    1412.8626    2552.0197    3964.8823   0.84523576 
   84800    49.750857    2843.3934    1430.6294    2558.6658    3989.2953   0.84523576 
   84900    49.370271    2791.8697    1419.6853    2536.7785    3956.4638   0.84523576 
   85000    50.603777    2864.0025    1455.1559    2536.3799    3991.5357   0.84523576 
   85100    49.384566     2864.037    1420.0964    2531.4036       3951.5   0.84523576 
   85200    50.926292    2845.2649    1464.4301      2535.32    3999.7501   0.84523576 
   85300    49.782235    2865.5925    1431.5317    2524.1357    3955.6674   0.84523576 
   85400    50.258494    2810.2834    1445.2269    2544.0315    3989.2585   0.84523576 
   85500    49.708832    2839.5954    1429.4209    2552.7885    3982.2095   0.84523576 
   85600     50.97587    2815.5089    1465.8557    2531.0014    3996.8571   0.84523576 
   85700    49.658331    2782.9145    1427.9687    2508.0909    3936.0596   0.84523576 
   85800    50.271434    2742.5342    1445.5991    2504.2413    3949.8403   0.84523576 
   85900    50.119577    2874.5504    1441.2323    2516.3808     3957.613   0.84523576 
[...]
  179300    328.40919    1290.6776    9443.6934    6908.7463     16352.44   0.84523576 
  179400    331.59973     1390.627    9535.4402    6734.2653    16269.705   0.84523576 
  179500    327.86956    1364.9153    9428.1759    6737.1776    16165.353   0.84523576 
  179600    331.83372    1315.6867    9542.1688    6829.6282    16371.797   0.84523576 
  179700    328.98086     1308.797    9460.1322    6876.8056    16336.938   0.84523576 
  179800    333.28793    1621.1378    9583.9858    6922.1628    16506.149   0.84523576 
  179900    330.64746    1592.7559     9508.057    6940.7059    16448.763   0.84523576 
  180000    331.18641    1315.1387    9523.5548    6933.7565    16457.311   0.84523576 
  180100    332.27632    1098.1128    9554.8963    6943.9448    16498.841   0.84523576 
  180200    335.08123    1201.6697    9635.5539    6745.4824    16381.036   0.84523576 
  180300    330.96296    1417.4598    9517.1293    6908.5808     16425.71   0.84523576 
  180400    334.64966    1256.1157    9623.1435    6998.7719    16621.915   0.84523576 
  180500    333.77082    1242.5104    9597.8719    6902.0426    16499.915   0.84523576 
  180600    331.82583    1216.9619     9541.942    6868.6207    16410.563   0.84523576 
  180700    330.04881    1185.4909    9490.8423    7027.5422    16518.385   0.84523576 
  180800    330.31915    1198.5827    9498.6159    6898.6375    16397.253   0.84523576 
  180900    331.81937    1220.0532    9541.7562    6970.6368    16512.393   0.84523576 
  181000     332.5128    1349.8037    9561.6962    6787.3566    16349.053   0.84523576 
  181100    330.22581    1204.4903    9495.9319    6821.9594    16317.891   0.84523576 
  181200     332.5226     1318.777    9561.9781    7019.1397    16581.118   0.84523576 
  181300    332.07784    1359.2174    9549.1888    6933.7868    16482.976   0.84523576 
  181400     338.9107    1272.5391    9745.6736    6889.1263      16634.8   0.84523576 
  181500    333.13677    1152.8009    9579.6391    6895.1946    16474.834   0.84523576 
  181600     331.8506    1333.2398    9542.6544    7090.6643    16633.319   0.84523576 
  181700    341.39761    1294.9784     9817.187    6821.3367    16638.524   0.84523576 
  181800    337.00198      1270.29    9690.7865    6948.7911    16639.578   0.84523576 
  181900    334.61363     1223.468    9622.1075    6948.8366    16570.944   0.84523576 
  182000     330.1062    1360.4583    9492.4924    6946.5968    16439.089   0.84523576 
  182100    332.20984    1199.0214    9552.9846    6901.2323    16454.217   0.84523576 
  182200    332.62417    1428.1569    9564.8989    6892.3231    16457.222   0.84523576 
  182300    337.61658    1225.8022      9708.46    6808.2311    16516.691   0.84523576 
  182400    335.10317    1437.2139    9636.1847    6848.7286    16484.913   0.84523576 
  182500    335.10919    1289.5157    9636.3579    6837.8917     16474.25   0.84523576 
  182600    333.54695    1295.6432    9591.4344    6894.4314    16485.866   0.84523576 
  182700    335.09965    1387.2487    9636.0836    6899.3259    16535.409   0.84523576 
  182800    337.08558    1258.9494    9693.1907     6926.429     16619.62   0.84523576 
  182900    334.45848    1220.5319    9617.6461    6977.6953    16595.341   0.84523576 
  183000    342.06065    1317.7263    9836.2532    6914.3493    16750.602   0.84523576 
  183100     339.2648     1296.014     9755.856    7067.9982    16823.854   0.84523576 
  183200     332.7005    1300.7683    9567.0938    7043.3317    16610.426   0.84523576 
  183300    328.90773    1263.9946    9458.0293    6793.0271    16251.056   0.84523576 
  183400    328.51687    1307.3291    9446.7898    6914.0216    16360.811   0.84523576 
  183500    336.12067    1096.6499    9665.4438    6994.4775    16659.921   0.84523576 
  183600      336.264    1333.0782    9669.5653    6888.6143     16558.18   0.84523576 
  183700    334.15587    1416.7585    9608.9442    6977.8317    16586.776   0.84523576 
  183800      341.283    1256.9701     9813.891     7016.462    16830.353   0.84523576 
  183900    335.83598    1118.7053    9657.2572    6982.4996    16639.757   0.84523576 
  184000    337.52795    1234.8809    9705.9113    6965.3983     16671.31   0.84523576 
  184100    341.61468    1378.3655    9823.4287    6706.7251    16530.154   0.84523576 
  184200    338.14755    1156.1236    9723.7286    6979.2376    16702.966   0.84523576 
  184300    332.46705    1273.1318    9560.3808    7001.2874    16561.668   0.84523576 
  184400    337.56089    1331.9795    9706.8585    7066.8413      16773.7   0.84523576 
  184500    338.98949    1292.2679    9747.9393     6951.234    16699.173   0.84523576 
  184600    332.42727     1279.453    9559.2368    7050.0965    16609.333   0.84523576 
  184700     337.3094    1249.0474    9699.6267    6802.9077    16502.534   0.84523576 
  184800    339.28475    1174.1052    9756.4297    6913.5283    16669.958   0.84523576 
  184900    340.03328    1075.0967    9777.9544    6948.0677    16726.022   0.84523576 
  185000    341.62048    1364.1608    9823.5958    6916.1105    16739.706   0.84523576 
  185100    340.52925    1243.7309    9792.2164    7014.3059    16806.522   0.84523576 
  185200    335.54465    1446.4476    9648.8799    6979.7449    16628.625   0.84523576 
  185300    337.30656    1344.1165    9699.5451    6961.0751     16660.62   0.84523576 
  185400     334.7409    1160.1383    9625.7675    6738.4785    16364.246   0.84523576 
  185500    338.12915    1202.6964    9723.1995    6803.0347    16526.234   0.84523576 
  185600    338.40055    1052.5623    9731.0038     6792.288    16523.292   0.84523576 
  185700    335.91814    1264.8436      9659.62    6831.4481    16491.068   0.84523576 
  185800    337.28764    1056.2336    9699.0012    6782.5184     16481.52   0.84523576 
  185900    331.74252    1262.5374    9539.5464    6857.4571    16397.003   0.84523576 
  186000    333.48121    1268.0518    9589.5438    6831.9035    16421.447   0.84523576 
  186100    331.26661    1110.3906     9525.861    6830.4667    16356.328   0.84523576 
  186200    336.88804    1259.2752    9687.5103    6848.5276    16536.038   0.84523576 
  186300    334.77291    1233.4784    9626.6879    6887.0625     16513.75   0.84523576 
  186400    337.26646    1355.5729     9698.392    6873.0076      16571.4   0.84523576 
  186500    341.34012    1371.4098    9815.5337    7056.4941    16872.028   0.84523576 
  186600    338.20982    1431.2944    9725.5192    6982.1774    16707.697   0.84523576 
  186700    336.58059     1068.677    9678.6691    7000.7785    16679.448   0.84523576 
  186800    335.54754      1328.44    9648.9631    6878.9991    16527.962   0.84523576 
  186900      337.845    1342.5665    9715.0285    6992.5252    16707.554   0.84523576 
  187000     340.2918    1220.4662    9785.3883    6970.8894    16756.278   0.84523576 
  187100    339.46695    1435.0333    9761.6689    6903.8984    16665.567   0.84523576 
  187200    330.72826    1172.7929    9510.3804    6683.3859    16193.766   0.84523576 
  187300    338.20061    1115.2942    9725.2542    6646.6231    16371.877   0.84523576 
  187400    339.30165    1298.6402    9756.9157    6813.9634    16570.879   0.84523576 
  187500    340.34815    1353.9314    9787.0086    6998.0556    16785.064   0.84523576 
  187600    338.85573    1107.7927    9744.0929    6878.7078    16622.801   0.84523576 
  187700    334.70663    1269.9809    9624.7817    6929.4636    16554.245   0.84523576 
  187800    336.27148    1247.8199    9669.7805    7018.9919    16688.772   0.84523576 
  187900    336.31578     1189.449    9671.0543    6932.9318    16603.986   0.84523576 
  188000    336.82861    1176.8255    9685.8012    6793.2398    16479.041   0.84523576 
  188100    337.98032    1235.9833    9718.9198    6692.4629    16411.383   0.84523576 
  188200    336.20637    1140.1594    9667.9083    6918.4561    16586.364   0.84523576 
  188300    334.06054    1275.5476    9606.2031    6915.9477    16522.151   0.84523576 
  188400    339.10211    1149.1288    9751.1777    6908.4183    16659.596   0.84523576 
  188500    343.77257    1184.7026    9885.4808    6887.1581    16772.639   0.84523576 
  188600    344.33728     1171.194    9901.7195     6897.065    16798.784   0.84523576 
  188700    336.63477    1192.5995    9680.2273     6823.449    16503.676   0.84523576 
  188800     337.0872    1297.3245    9693.2373    6769.9435    16463.181   0.84523576 
  188900    343.44833    1358.7455    9876.1572      6803.12    16679.277   0.84523576 
  189000    346.86242      1350.07    9974.3323    6724.6477     16698.98   0.84523576 
  189100    346.43909    1222.1876    9962.1591    6850.4211     16812.58   0.84523576 
  189200    342.26378    1176.7555    9842.0943    6905.7421    16747.836   0.84523576 
  189300    340.74799    1074.1683    9798.5065    6911.0866    16709.593   0.84523576 
  189400    338.91483    997.13729    9745.7924    7005.1439    16750.936   0.84523576 
  189500    341.97382    1241.4724    9833.7563    6871.2649    16705.021   0.84523576 
  189600    342.59792    1218.6178    9851.7028    6964.8331    16816.536   0.84523576 
  189700    344.09183    1393.2096    9894.6614    6946.4617    16841.123   0.84523576 
  189800     342.4298    1282.4904    9846.8685    7052.8852    16899.754   0.84523576 
  189900    347.54002    1281.4001    9993.8172    6944.8618    16938.679   0.84523576 
  190000    339.48085    1363.9247    9762.0686       6854.1    16616.169   0.84523576 
  190100    345.89854    1218.3281    9946.6151    7035.1675    16981.783   0.84523576 
  190200    344.00195    1091.9279    9892.0768    6963.7055    16855.782   0.84523576 
  190300    337.10417    1071.3024    9693.7251    7021.0055    16714.731   0.84523576 
  190400    339.65912    1092.6322    9767.1951    6819.0832    16586.278   0.84523576 
  190500    344.61508    1055.1278    9909.7081    7038.1429    16947.851   0.84523576 
  190600     341.9992    1143.6885     9834.486    6916.3791    16750.865   0.84523576 
  190700    344.17762    1109.1898    9897.1284    6885.0975    16782.226   0.84523576 
  190800    339.84771    1311.5354    9772.6181    6933.5126    16706.131   0.84523576 
  190900    344.16654      1157.29      9896.81     6849.376    16746.186   0.84523576 
  191000    337.87074    1313.7013    9715.7686    6929.1956    16644.964   0.84523576 
  191100     344.8918    1258.7414    9917.6654    6971.4627    16889.128   0.84523576 
  191200    347.11977    1097.8574    9981.7326    7112.9095    17094.642   0.84523576 
  191300     342.7931    1200.6368    9857.3153    7060.5116    16917.827   0.84523576 
  191400    340.96053    1146.3873    9804.6183    7041.5839    16846.202   0.84523576 
  191500    346.36413    1167.2865    9960.0036    7257.8392    17217.843   0.84523576 
  191600    344.62874    1282.1586    9910.1008    7122.6259    17032.727   0.84523576 
  191700    346.26759    1171.1414    9957.2274    6996.2035    16953.431   0.84523576 
  191800    341.14032    1171.6885    9809.7883    7113.1387    16922.927   0.84523576 
  191900     350.3509    1249.5282    10074.647     6958.906    17033.553   0.84523576 
  192000    343.06841    1057.2341     9865.232    6986.6285    16851.861   0.84523576 
  192100    342.27135    1128.7322     9842.312    7048.7534    16891.065   0.84523576 
  192200    339.78448     1202.463       9770.8    6987.3994    16758.199   0.84523576 
  192300    344.10711    1213.4942    9895.1008    6836.5985    16731.699   0.84523576 
  192400    346.68209    1074.1677    9969.1468    6897.0803    16866.227   0.84523576 
  192500    347.08871    1172.0357    9980.8393    7028.8086    17009.648   0.84523576 
  192600    341.23724    1203.8481    9812.5753    6813.3058    16625.881   0.84523576 
  192700    344.24678    1254.8134    9899.1171    6931.9026     16831.02   0.84523576 
  192800    348.05328    1247.5426    10008.576    6812.5116    16821.088   0.84523576 
  192900    339.82974    1232.3594    9772.1013    6864.5845    16636.686   0.84523576 
  193000     338.9942    1290.8326    9748.0747    6987.9821    16736.057   0.84523576 
  193100    337.47516    1248.2069    9704.3935    6989.5208    16693.914   0.84523576 
  193200    345.91536     1191.321    9947.0988    7009.0676    16956.166   0.84523576 
  193300    343.56634    1077.5551    9879.5504    6878.1517    16757.702   0.84523576 
  193400    339.28565    1173.0014    9756.4555    6965.2535    16721.709   0.84523576 
  193500    348.06715      1187.33    10008.975    6977.2874    16986.263   0.84523576 
  193600    343.83848    1166.1869    9887.3762    6966.2754    16853.652   0.84523576 
  193700    343.32009    1210.8226    9872.4695    6940.4158    16812.885   0.84523576 
  193800    343.61498    1186.9857    9880.9493    6961.7125    16842.662   0.84523576 
  193900    348.41389    1302.0128    10018.946    6829.1151    16848.061   0.84523576 
  194000    345.04814    1227.5376    9922.1612    6888.0505    16810.212   0.84523576 
  194100    346.16436    1122.9226    9954.2588    6917.5246    16871.783   0.84523576 
  194200    342.08665     1200.159    9837.0007    6936.5469    16773.548   0.84523576 
  194300    338.82473    1314.7216    9743.2013    7024.7855    16767.987   0.84523576 
  194400    347.08964    1053.7147    9980.8662    6906.1919    16887.058   0.84523576 
  194500    348.26605    1286.9422    10014.695    6960.7855     16975.48   0.84523576 
  194600    344.62804    1094.5973    9910.0807    6943.7808    16853.862   0.84523576 
  194700    343.79322    1009.2823    9886.0748    7098.9265    16985.001   0.84523576 
  194800    343.02002    1117.8329    9863.8406    6969.0538    16832.894   0.84523576 
  194900    344.12308    1032.8602    9895.5601    7001.1342    16896.694   0.84523576 
  195000    343.12163     1215.439    9866.7626    6948.5688    16815.331   0.84523576 
  195100    345.28086    1258.2131    9928.8531    6931.3549    16860.208   0.84523576 
  195200    340.08307    1308.4762     9779.386    6904.8981    16684.284   0.84523576 
  195300    341.42594    1254.7681    9818.0014    6900.7323    16718.734   0.84523576 
  195400    343.98934    1028.2568    9891.7143    6905.6356     16797.35   0.84523576 
  195500    342.97109    964.76963    9862.4338    6927.9557    16790.389   0.84523576 
  195600    339.82896     1055.827     9772.079     6818.533    16590.612   0.84523576 
  195700    347.06008    1301.1389    9980.0162    6860.2997    16840.316   0.84523576 
  195800    346.90484    1114.2135     9975.552    6868.5809    16844.133   0.84523576 
  195900    350.93515    1221.5958    10091.447    6971.8934    17063.341   0.84523576 
  196000    350.14025    1317.1081    10068.589    6963.4175    17032.007   0.84523576 
  196100    341.26748    1003.4874    9813.4449    6964.6525    16778.097   0.84523576 
  196200    346.03293    1318.9087    9950.4795    6842.4163    16792.896   0.84523576 
  196300    345.83164    1109.1329    9944.6912    6979.3228    16924.014   0.84523576 
  196400    347.86442    1291.5415    10003.146    6922.6661    16925.812   0.84523576 
  196500    348.05576    1115.2933    10008.648    7012.8859    17021.534   0.84523576 
  196600    343.69238    1200.4918    9883.1751    7044.7314    16927.906   0.84523576 
  196700    346.67636    1104.0057     9968.982    7043.5536    17012.536   0.84523576 
  196800    348.73591    1129.6857    10028.206    7228.5609    17256.767   0.84523576 
  196900    352.87559    1214.3745    10147.246    6856.3124    17003.559   0.84523576 
  197000    347.94999    1172.7065    10005.606    7015.5906    17021.197   0.84523576 
  197100    351.42639    1253.6302    10105.573    6953.3725    17058.946   0.84523576 
  197200    347.26827    1243.6815     9986.003    7041.5178    17027.521   0.84523576 
  197300    347.03435    1250.3247    9979.2762    6998.8233    16978.099   0.84523576 
  197400    350.59497    1342.0207    10081.665    6901.9173    16983.582   0.84523576 
  197500    343.06344    1209.1304    9865.0891    7058.8145    16923.904   0.84523576 
  197600    346.29956    1116.7118    9958.1468    6878.4348    16836.582   0.84523576 
  197700    340.49393     1066.198    9791.2007    6903.2838    16694.485   0.84523576 
  197800    343.24935    1253.0747    9870.4352    6936.3978    16806.833   0.84523576 
  197900    345.96584    1355.4958    9948.5503    6871.5887    16820.139   0.84523576 
  198000    347.30391    1258.2548    9987.0275    6897.8448    16884.872   0.84523576 
  198100    350.27636    969.38139    10072.503    7026.0727    17098.576   0.84523576 
  198200    347.94301     1303.338    10005.406    7084.8228    17090.228   0.84523576 
  198300    340.91625     1256.508    9803.3449    6989.6855     16793.03   0.84523576 
  198400    354.00662    1256.0687     10179.77    6991.4772    17171.247   0.84523576 
  198500    349.22309    1337.5113    10042.215    7056.1862    17098.402   0.84523576 
  198600     350.9506    1228.7823    10091.891    6978.8865    17070.778   0.84523576 
  198700    348.29712    1228.7891    10015.588    6998.3471    17013.935   0.84523576 
  198800    351.21109    1093.6318    10099.382    7118.6758    17218.058   0.84523576 
  198900     342.9438     1127.122     9861.649    7146.4795    17008.128   0.84523576 
  199000    346.63338      1084.07    9967.7459     7026.435    16994.181   0.84523576 
  199100    351.13477    1193.8167    10097.187    6957.2118    17054.399   0.84523576 
  199200    342.31547    1210.2378    9843.5806    6994.8917    16838.472   0.84523576 
  199300    346.53944    1103.4094    9965.0446    7032.8229    16997.868   0.84523576 
  199400    345.01104    1311.5544    9921.0941    6861.5216    16782.616   0.84523576 
  199500    345.09433    1244.3901    9923.4893    7022.7005     16946.19   0.84523576 
  199600     345.4384    1246.8626    9933.3832    7024.0173      16957.4   0.84523576 
  199700    350.65324    1088.7393    10083.341    6977.0452    17060.386   0.84523576 
  199800    352.78499    1268.4278    10144.641    6979.4978    17124.139   0.84523576 
  199900    349.61193    1059.8676    10053.397    7061.6798    17115.076   0.84523576 
  200000    344.77599    1232.5083    9914.3352    6996.7104    16911.046   0.84523576 
  200100    344.83676    1189.4417    9916.0827    6829.4985    16745.581   0.84523576 
Loop time of 1433.81 on 12 procs for 100000 steps with 9648 atoms

Performance: 6.026 ns/day, 3.983 hours/ns, 69.744 timesteps/s
99.5% CPU use with 12 MPI tasks x 1 OpenMP threads

MPI task timing breakdown:
Section |  min time  |  avg time  |  max time  |%varavg| %total
---------------------------------------------------------------
Pair    | 921.51     | 970.82     | 1038       | 113.8 | 67.71
Bond    | 38.698     | 41.383     | 43.797     |  20.3 |  2.89
Kspace  | 318.67     | 382.68     | 426.38     | 167.1 | 26.69
Neigh   | 2.9975     | 2.9978     | 2.9982     |   0.0 |  0.21
Comm    | 16.519     | 24.747     | 32.894     |  94.3 |  1.73
Output  | 0.047819   | 0.063092   | 0.21794    |  18.6 |  0.00
Modify  | 6.6369     | 6.9058     | 7.0847     |   6.4 |  0.48
Other   |            | 4.213      |            |       |  0.29

Nlocal:    804 ave 844 max 752 min
Histogram: 1 0 1 0 3 1 2 3 0 1
Nghost:    6472.83 ave 6547 max 6393 min
Histogram: 1 1 1 2 1 1 1 1 2 1
Neighs:    910442 ave 985533 max 829741 min
Histogram: 1 0 0 3 2 1 3 1 0 1

Total # of neighbors = 10925305
Ave neighs/atom = 1132.39
Ave special neighs/atom = 7.9602
Neighbor list builds = 135
Dangerous builds = 0
System init for write_restart ...
Ewald initialization ...
WARNING: Using 12-bit tables for long-range coulomb (../kspace.cpp:321)
  G vector (1/distance) = 0.134422
  estimated absolute RMS force accuracy = 0.0387028
  estimated relative force accuracy = 0.000116552
  KSpace vectors: actual max1d max3d = 725 7 1687
                  kxmax kymax kzmax  = 6 6 7
Total wall time: 0:48:51
