
                                 *****************
                                 * O   R   C   A *
                                 *****************

           --- An Ab Initio, DFT and Semiempirical electronic structure package ---

                  #######################################################
                  #                        -***-                        #
                  #  Department of molecular theory and spectroscopy    #
                  #              Directorship: Frank Neese              #
                  # Max Planck Institute for Chemical Energy Conversion #
                  #                  D-45470 Muelheim/Ruhr              #
                  #                       Germany                       #
                  #                                                     #
                  #                  All rights reserved                #
                  #                        -***-                        #
                  #######################################################


                         Program Version 4.0.1.2 - RELEASE -


 With contributions from (in alphabetic order):
   Daniel Aravena         : Magnetic Properties
   Michael Atanasov       : Ab Initio Ligand Field Theory
   Ute Becker             : Parallelization
   Martin Brehm           : Molecular dynamics
   Dmytro Bykov           : SCF Hessian
   Vijay G. Chilkuri      : MRCI spin determinant printing
   Dipayan Datta          : RHF DLPNO-CCSD density
   Achintya Kumar Dutta   : EOM-CC, STEOM-CC
   Dmitry Ganyushin       : Spin-Orbit,Spin-Spin,Magnetic field MRCI
   Yang Guo               : DLPNO-NEVPT2, CIM, IAO-localization
   Andreas Hansen         : Spin unrestricted coupled pair/coupled cluster methods
   Lee Huntington         : MR-EOM, pCC
   Robert Izsak           : Overlap fitted RIJCOSX, COSX-SCS-MP3, EOM
   Christian Kollmar      : KDIIS, OOCD, Brueckner-CCSD(T), CCSD density
   Simone Kossmann        : Meta GGA functionals, TD-DFT gradient, OOMP2, MP2 Hessian
   Martin Krupicka        : AUTO-CI
   Dagmar Lenk            : GEPOL surface
   Dimitrios Liakos       : Extrapolation schemes; parallel MDCI
   Dimitrios Manganas     : ROCIS; embedding schemes
   Dimitrios Pantazis     : SARC Basis sets
   Taras Petrenko         : DFT Hessian,TD-DFT gradient, ASA, ECA, R-Raman, ABS, FL, XAS/XES, NRVS
   Peter Pinski           : DLPNO-MP2
   Christoph Reimann      : Effective Core Potentials
   Marius Retegan         : Local ZFS, SOC
   Christoph Riplinger    : Optimizer, TS searches, QM/MM, DLPNO-CCSD(T), (RO)-DLPNO pert. Triples
   Tobias Risthaus        : Range-separated hybrids, TD-DFT gradient, RPA, STAB
   Michael Roemelt        : Restricted open shell CIS
   Masaaki Saitow         : Open-shell DLPNO
   Barbara Sandhoefer     : DKH picture change effects
   Kantharuban Sivalingam : CASSCF convergence, NEVPT2, FIC-MRCI
   Georgi Stoychev        : AutoAux
   Boris Wezisla          : Elementary symmetry handling
   Frank Wennmohs         : Technical directorship


 We gratefully acknowledge several colleagues who have allowed us to
 interface, adapt or use parts of their codes:
   Stefan Grimme, W. Hujo, H. Kruse,             : VdW corrections, initial TS optimization,
                  C. Bannwarth                     DFT functionals, gCP, sTDA/sTD-DF
   Ed Valeev                                     : LibInt (2-el integral package), F12 methods
   Garnet Chan, S. Sharma, J. Yang, R. Olivares  : DMRG
   Ulf Ekstrom                                   : XCFun DFT Library
   Mihaly Kallay                                 : mrcc  (arbitrary order and MRCC methods)
   Andreas Klamt, Michael Diedenhofen            : otool_cosmo (COSMO solvation model)
   Jiri Pittner, Ondrej Demel                    : Mk-CCSD
   Frank Weinhold                                : gennbo (NPA and NBO analysis)
   Christopher J. Cramer and Donald G. Truhlar   : smd solvation model


 Your calculation uses the libint2 library for the computation of 2-el integrals
 For citations please refer to: http://libint.valeyev.net

 This ORCA versions uses:
   CBLAS   interface :  Fast vector & matrix operations
   LAPACKE interface :  Fast linear algebra routines
   SCALAPACK package :  Parallel linear algebra routines


Your calculation utilizes the basis: 6-31+G**
   H-He, Li-Ne : W. J. Hehre, R. Ditchfield and J.A. Pople, J. Chem. Phys. 56, 2257 (1972).
                 Note: He and Ne are unpublished basis sets taken from the Gaussian program.
                 Note: Li and B from J. D. Dill and J. A. Pople, J. Chem. Phys. 62, 2921 (1975).
   Na - Ar     : M. M. Francl, W. J. Pietro, W. J. Hehre, J. S. Binkley, M. S. Gordon, 
                 D. J. DeFrees and J. A. Pople, J. Chem. Phys. 77, 3654 (1982).
   K - Zn      : V. A. Rassolov, J. A. Pople, M. A. Ratner, and T. L. Windus, J. Chem. Phys. 109, 1223 (1998).
   Additional Pol./Diff. from the 6-311G equivalent.

================================================================================
                                        WARNINGS
                       Please study these warnings very carefully!
================================================================================

Warning: TCutStore was < 0. Adjusted to Thresh (uncritical)

WARNING: Geometry Optimization
  ===> : Switching off AutoStart
         For restart on a previous wavefunction, please use MOREAD

INFO   : the flag for use of LIBINT has been found!

================================================================================
                                       INPUT FILE
================================================================================
NAME = OEG1.inp
|  1> ! RKS B3LYP 6-31+G** NormalSCF Opt NOSOSCF CHELPG
|  2> 
|  3> *xyz 0 1
|  4> S 0.50574 -0.51331 -0.15033
|  5> C 0.50574 1.32617 -0.15033
|  6> C -0.85630 1.85268 0.31332
|  7> O -0.83786 3.29051 0.30705
|  8> C -2.08611 3.81387 0.73196
|  9> H 0.72121 1.74773 -1.14029
| 10> H 1.28045 1.74772 0.50258
| 11> H -1.07914 1.50904 1.33165
| 12> H -1.65416 1.50904 -0.35756
| 13> H -2.02674 4.90545 0.71175
| 14> H -2.30865 3.49715 1.75557
| 15> H -2.88696 3.49713 0.05674
| 16> **                         ****END OF INPUT****
================================================================================

                       *****************************
                       * Geometry Optimization Run *
                       *****************************

Geometry optimization settings:
Update method            Update   .... BFGS
Choice of coordinates    CoordSys .... Redundant Internals
Initial Hessian          InHess   .... Almoef's Model

Convergence Tolerances:
Energy Change            TolE     ....  5.0000e-06 Eh
Max. Gradient            TolMAXG  ....  3.0000e-04 Eh/bohr
RMS Gradient             TolRMSG  ....  1.0000e-04 Eh/bohr
Max. Displacement        TolMAXD  ....  4.0000e-03 bohr
RMS Displacement         TolRMSD  ....  2.0000e-03 bohr

------------------------------------------------------------------------------
                        ORCA OPTIMIZATION COORDINATE SETUP
------------------------------------------------------------------------------

The optimization will be done in new redundant internal coordinates
Making redundant internal coordinates   ...  (new redundants) done
Evaluating the initial hessian          ...  (Almloef) done
Evaluating the coordinates              ...  done
Calculating the B-matrix                .... done
Calculating the G-matrix                .... done
Diagonalizing the G-matrix              .... done
The first mode is                       ....   15
The number of degrees of freedom        ....   30

    -----------------------------------------------------------------
                    Redundant Internal Coordinates


    -----------------------------------------------------------------
         Definition                    Initial Value    Approx d2E/dq
    -----------------------------------------------------------------
      1. B(C   1,S   0)                  1.8395         0.323139   
      2. B(C   2,C   1)                  1.5321         0.370701   
      3. B(O   3,C   2)                  1.4380         0.469197   
      4. B(C   4,O   3)                  1.4187         0.503684   
      5. B(H   5,C   1)                  1.0973         0.350516   
      6. B(H   6,C   1)                  1.0973         0.350510   
      7. B(H   7,C   2)                  1.0976         0.350176   
      8. B(H   8,C   2)                  1.0976         0.350172   
      9. B(H   9,C   4)                  1.0934         0.355656   
     10. B(H  10,C   4)                  1.0944         0.354385   
     11. B(H  11,C   4)                  1.0944         0.354388   
     12. A(C   2,C   1,H   5)          108.3941         0.322478   
     13. A(S   0,C   1,C   2)          110.0995         0.372634   
     14. A(C   2,C   1,H   6)          108.3939         0.322477   
     15. A(S   0,C   1,H   6)          112.5912         0.331222   
     16. A(S   0,C   1,H   5)          112.5919         0.331223   
     17. A(H   5,C   1,H   6)          104.5108         0.288389   
     18. A(H   7,C   2,H   8)          108.7521         0.288302   
     19. A(O   3,C   2,H   8)          108.6453         0.333187   
     20. A(C   1,C   2,H   8)          110.7114         0.322426   
     21. A(O   3,C   2,H   7)          108.6449         0.333188   
     22. A(C   1,C   2,H   7)          110.7115         0.322427   
     23. A(C   1,C   2,O   3)          109.3235         0.374997   
     24. A(C   2,O   3,C   4)          110.8725         0.393023   
     25. A(O   3,C   4,H  10)          110.6288         0.337811   
     26. A(O   3,C   4,H   9)          108.3603         0.338013   
     27. A(H  10,C   4,H  11)          110.1536         0.289383   
     28. A(H   9,C   4,H  11)          108.4989         0.289546   
     29. A(O   3,C   4,H  11)          110.6295         0.337812   
     30. A(H   9,C   4,H  10)          108.4977         0.289545   
     31. D(O   3,C   2,C   1,H   6)     56.4418         0.010983   
     32. D(O   3,C   2,C   1,H   5)    -56.4414         0.010983   
     33. D(H   7,C   2,C   1,S   0)     60.3447         0.010983   
     34. D(H   7,C   2,C   1,H   6)    -63.2132         0.010983   
     35. D(H   8,C   2,C   1,S   0)    -60.3449         0.010983   
     36. D(O   3,C   2,C   1,S   0)    179.9997         0.010983   
     37. D(H   8,C   2,C   1,H   5)     63.2140         0.010983   
     38. D(H   8,C   2,C   1,H   6)    176.0972         0.010983   
     39. D(H   7,C   2,C   1,H   5)   -176.0963         0.010983   
     40. D(C   4,O   3,C   2,H   8)     59.0792         0.017352   
     41. D(C   4,O   3,C   2,H   7)    -59.0797         0.017352   
     42. D(C   4,O   3,C   2,C   1)    179.9998         0.017352   
     43. D(H  11,C   4,O   3,C   2)    -61.1736         0.020066   
     44. D(H  10,C   4,O   3,C   2)     61.1761         0.020066   
     45. D(H   9,C   4,O   3,C   2)   -179.9997         0.020066   
    -----------------------------------------------------------------

Number of atoms                         .... 12
Number of degrees of freedom            .... 45

         *************************************************************
         *                GEOMETRY OPTIMIZATION CYCLE   1            *
         *************************************************************
---------------------------------
CARTESIAN COORDINATES (ANGSTROEM)
---------------------------------
  S      0.505740   -0.513310   -0.150330
  C      0.505740    1.326170   -0.150330
  C     -0.856300    1.852680    0.313320
  O     -0.837860    3.290510    0.307050
  C     -2.086110    3.813870    0.731960
  H      0.721210    1.747730   -1.140290
  H      1.280450    1.747720    0.502580
  H     -1.079140    1.509040    1.331650
  H     -1.654160    1.509040   -0.357560
  H     -2.026740    4.905450    0.711750
  H     -2.308650    3.497150    1.755570
  H     -2.886960    3.497130    0.056740

----------------------------
CARTESIAN COORDINATES (A.U.)
----------------------------
  NO LB      ZA    FRAG     MASS         X           Y           Z
   0 S    16.0000    0    32.060    0.955710   -0.970015   -0.284083
   1 C     6.0000    0    12.011    0.955710    2.506098   -0.284083
   2 C     6.0000    0    12.011   -1.618172    3.501058    0.592089
   3 O     8.0000    0    15.999   -1.583326    6.218163    0.580240
   4 C     6.0000    0    12.011   -3.942177    7.207170    1.383204
   5 H     1.0000    0     1.008    1.362889    3.302731   -2.154836
   6 H     1.0000    0     1.008    2.419700    3.302712    0.949739
   7 H     1.0000    0     1.008   -2.039279    2.851672    2.516454
   8 H     1.0000    0     1.008   -3.125909    2.851672   -0.675690
   9 H     1.0000    0     1.008   -3.829984    9.269957    1.345013
  10 H     1.0000    0     1.008   -4.362716    6.608656    3.317547
  11 H     1.0000    0     1.008   -5.455564    6.608618    0.107223

--------------------------------
INTERNAL COORDINATES (ANGSTROEM)
--------------------------------
 S      0   0   0     0.000000000000     0.00000000     0.00000000
 C      1   0   0     1.839480000000     0.00000000     0.00000000
 C      2   1   0     1.532102171593   110.09953152     0.00000000
 O      3   2   1     1.437961910274   109.32345142   179.99971489
 C      4   3   2     1.418655088526   110.87250146   179.99979059
 H      2   1   3     1.097342679431   112.59187544   238.92177516
 H      2   1   3     1.097347463067   112.59120599   121.07747384
 H      3   2   1     1.097607445356   110.71150920    60.34474526
 H      3   2   1     1.097610588324   110.71137520   299.65510218
 H      5   4   3     1.093380143134   108.36032903   180.00029447
 H      5   4   3     1.094355080447   110.62880657    61.17605668
 H      5   4   3     1.094352319182   110.62945782   298.82637223

---------------------------
INTERNAL COORDINATES (A.U.)
---------------------------
 S      0   0   0     0.000000000000     0.00000000     0.00000000
 C      1   0   0     3.476113428825     0.00000000     0.00000000
 C      2   1   0     2.895253513497   110.09953152     0.00000000
 O      3   2   1     2.717354201429   109.32345142   179.99971489
 C      4   3   2     2.680869595807   110.87250146   179.99979059
 H      2   1   3     2.073677139187   112.59187544   238.92177516
 H      2   1   3     2.073686178950   112.59120599   121.07747384
 H      3   2   1     2.074177474275   110.71150920    60.34474526
 H      3   2   1     2.074183413624   110.71137520   299.65510218
 H      5   4   3     2.066189030791   108.36032903   180.00029447
 H      5   4   3     2.068031395310   110.62880657    61.17605668
 H      5   4   3     2.068026177276   110.62945782   298.82637223

---------------------
BASIS SET INFORMATION
---------------------
There are 4 groups of distinct atoms

 Group   1 Type S   : 17s11p1d contracted to 5s4p1d pattern {66311/6311/1}
 Group   2 Type C   : 11s5p1d contracted to 4s3p1d pattern {6311/311/1}
 Group   3 Type O   : 11s5p1d contracted to 4s3p1d pattern {6311/311/1}
 Group   4 Type H   : 4s1p contracted to 2s1p pattern {31/1}

Atom   0S    basis set group =>   1
Atom   1C    basis set group =>   2
Atom   2C    basis set group =>   2
Atom   3O    basis set group =>   3
Atom   4C    basis set group =>   2
Atom   5H    basis set group =>   4
Atom   6H    basis set group =>   4
Atom   7H    basis set group =>   4
Atom   8H    basis set group =>   4
Atom   9H    basis set group =>   4
Atom  10H    basis set group =>   4
Atom  11H    basis set group =>   4
[file orca_main/mainfcts.cpp, line 334]: Error : multiplicity (1) is odd and number of electrons (49) is odd -> impossible

