LAMMPS (31 Mar 2017)
  using 1 OpenMP thread(s) per MPI task
Reading data file ...
  orthogonal box = (0 0 0) to (81.6 70.667 100)
  4 by 3 by 1 MPI processor grid
  reading atoms ...
  6064 atoms
  scanning bonds ...
  1 = max bonds/atom
  scanning angles ...
  6 = max angles/atom
  scanning dihedrals ...
  9 = max dihedrals/atom
  reading bonds ...
  4608 bonds
  reading angles ...
  8192 angles
  reading dihedrals ...
  7680 dihedrals
Finding 1-2 1-3 1-4 neighbors ...
  special bond factors lj:   0          0          0.5       
  special bond factors coul: 0          0          0.5       
  4 = max # of 1-2 neighbors
  6 = max # of 1-3 neighbors
  12 = max # of 1-4 neighbors
  14 = max # of special neighbors
1200 atoms in group gold
256 atoms in group thiol
4864 atoms in group dynamic
Ewald initialization ...
WARNING: System is not charge neutral, net charge = -1.792e-05 (../kspace.cpp:302)
WARNING: Using 12-bit tables for long-range coulomb (../kspace.cpp:321)
  G vector (1/distance) = 0.123963
  estimated absolute RMS force accuracy = 0.0398863
  estimated relative force accuracy = 0.000120117
  KSpace vectors: actual max1d max3d = 432 6 1098
                  kxmax kymax kzmax  = 5 5 6
Neighbor list info ...
  update every 1 steps, delay 0 steps, check yes
  max neighbors/atom: 30000, page size: 300000
  master list distance cutoff = 22
  ghost atom cutoff = 22
  binsize = 11, bins = 8 7 10
  3 neighbor lists, perpetual/occasional/extra = 3 0 0
  (1) pair lj/cut/coul/long, perpetual, skip from (3)
      attributes: half, newton on
      pair build: skip
      stencil: none
      bin: none
  (2) pair morse, perpetual, skip from (3)
      attributes: half, newton on
      pair build: skip
      stencil: none
      bin: none
  (3) neighbor class addition, perpetual
      attributes: half, newton on
      pair build: half/bin/newton
      stencil: half/bin/3d/newton
      bin: standard
Setting up cg style minimization ...
  Unit style    : real
Per MPI rank memory allocation (min/avg/max) = 27.98 | 27.99 | 27.99 Mbytes
Step Temp Press KinEng PotEng TotEng Density 
       0            0    8470933.7            0     17777378     17777378   0.78028448 
     100            0   -55.153114            0   -7646.5397   -7646.5397   0.78028448 
Loop time of 1.11938 on 12 procs for 100 steps with 6064 atoms

98.8% CPU use with 12 MPI tasks x 1 OpenMP threads

Minimization stats:
  Stopping criterion = max iterations
  Energy initial, next-to-last, final = 
         17777377.5964     -7620.08779925     -7646.53974458
  Force two-norm initial, final = 1.06247e+07 131.081
  Force max component initial, final = 273224 18.3547
  Final line search alpha, max atom move = 0.00170553 0.0313044
  Iterations, force evaluations = 100 158

MPI task timing breakdown:
Section |  min time  |  avg time  |  max time  |%varavg| %total
---------------------------------------------------------------
Pair    | 0.71797    | 0.76962    | 0.82734    |   3.4 | 68.75
Bond    | 0.03105    | 0.034832   | 0.038928   |   1.3 |  3.11
Kspace  | 0.20747    | 0.26149    | 0.30952    |   5.4 | 23.36
Neigh   | 0          | 0          | 0          |   0.0 |  0.00
Comm    | 0.032099   | 0.045918   | 0.055333   |   3.1 |  4.10
Output  | 3.0041e-05 | 3.7352e-05 | 0.00011301 |   0.0 |  0.00
Modify  | 0.00018334 | 0.00020434 | 0.0002265  |   0.0 |  0.02
Other   |            | 0.007285   |            |       |  0.65

Nlocal:    505.333 ave 524 max 490 min
Histogram: 1 2 3 2 0 0 0 1 0 3
Nghost:    4054.83 ave 4082 max 4029 min
Histogram: 2 1 1 1 1 1 1 2 1 1
Neighs:    377503 ave 396124 max 358029 min
Histogram: 1 1 1 2 1 2 1 0 1 2

Total # of neighbors = 4530032
Ave neighs/atom = 747.037
Ave special neighs/atom = 6.75462
Neighbor list builds = 0
Dangerous builds = 0
Ewald initialization ...
WARNING: Using 12-bit tables for long-range coulomb (../kspace.cpp:321)
  G vector (1/distance) = 0.123963
  estimated absolute RMS force accuracy = 0.0398863
  estimated relative force accuracy = 0.000120117
  KSpace vectors: actual max1d max3d = 432 6 1098
                  kxmax kymax kzmax  = 5 5 6
Setting up Verlet run ...
  Unit style    : real
  Current step  : 100
  Time step     : 1
Per MPI rank memory allocation (min/avg/max) = 26.88 | 26.88 | 26.88 Mbytes
Step Temp Press KinEng PotEng TotEng Density 
     100            0   -55.153114            0   -7646.5397   -7646.5397   0.78028448 
     200    3.4860299   -175.13934    63.001803   -7794.1019   -7731.1001   0.78028448 
     300      4.05104   -187.82809    73.213033   -7932.9656   -7859.7526   0.78028448 
     400    3.6834096   -196.18508    66.568977    -8050.038    -7983.469   0.78028448 
     500     3.737591   -201.04742    67.548179   -8155.8948   -8088.3467   0.78028448 
     600    3.3005612   -221.99192    59.649891   -8237.2788   -8177.6289   0.78028448 
     700    2.9909578    -245.0458    54.054538    -8294.596   -8240.5415   0.78028448 
     800    2.8767188   -253.67135    51.989937   -8339.4185   -8287.4286   0.78028448 
     900    2.7494862   -265.25593    49.690505   -8373.8989   -8324.2084   0.78028448 
    1000    2.5903522   -267.50713    46.814533   -8387.6012   -8340.7866   0.78028448 
    1100    2.5552871   -277.50151    46.180812   -8398.1729   -8351.9921   0.78028448 
    1200    2.7433833   -287.01686     49.58021   -8403.8368   -8354.2566   0.78028448 
    1300    2.7770894   -270.00003    50.189368   -8406.0544    -8355.865   0.78028448 
    1400    2.9605744   -289.75695    53.505429   -8405.9194    -8352.414   0.78028448 
    1500    3.2237526   -295.69226    58.261757   -8404.9244   -8346.6627   0.78028448 
    1600    3.5249063   -285.22092    63.704403    -8404.553   -8340.8486   0.78028448 
    1700    3.7837188   -282.98111    68.381831   -8408.5835   -8340.2017   0.78028448 
    1800    4.0736466   -284.72353    73.621595   -8411.1774   -8337.5559   0.78028448 
    1900    4.2757017   -285.50019    77.273267   -8412.9789   -8335.7056   0.78028448 
    2000    4.5553325   -280.33792    82.326935   -8415.4365   -8333.1096   0.78028448 
    2100    4.6296995   -280.32454    83.670944   -8413.0536   -8329.3827   0.78028448 
    2200    4.8687221   -284.91523    87.990717   -8414.5162   -8326.5255   0.78028448 
    2300    5.0708452   -281.09182    91.643617   -8411.2225   -8319.5789   0.78028448 
    2400    5.3132012   -290.86649    96.023632   -8407.8007   -8311.7771   0.78028448 
    2500    5.5466387   -289.50469    100.24247   -8404.1015    -8303.859   0.78028448 
    2600    5.6685574   -310.36879    102.44586   -8398.2599   -8295.8141   0.78028448 
    2700    6.0430219   -263.67651    109.21343   -8395.9806   -8286.7672   0.78028448 
    2800    6.1203763   -268.31902    110.61143   -8387.9162   -8277.3047   0.78028448 
    2900    6.5014841   -279.99234    117.49906   -8390.2231    -8272.724   0.78028448 
    3000    6.6310959   -293.78504    119.84148   -8388.1438   -8268.3023   0.78028448 
    3100    6.9321083   -268.43362    125.28158   -8385.9089   -8260.6273   0.78028448 
    3200    6.9637718   -264.38744    125.85382   -8393.4711   -8267.6173   0.78028448 
    3300    7.2986516    -287.2812    131.90599   -8388.1871   -8256.2811   0.78028448 
    3400     7.577819   -291.06787    136.95128   -8385.6914   -8248.7402   0.78028448 
    3500    7.6246693    -288.3602    137.79799   -8382.5872   -8244.7892   0.78028448 
    3600    7.8309099   -292.59304     141.5253   -8381.0686   -8239.5433   0.78028448 
    3700     8.122212     -297.224     146.7899   -8380.4915   -8233.7016   0.78028448 
    3800    8.1614541   -278.20646    147.49911   -8371.1493   -8223.6502   0.78028448 
    3900    8.4489444   -270.21264    152.69483   -8371.1984   -8218.5036   0.78028448 
    4000     8.552564   -280.80288    154.56751   -8369.7581   -8215.1906   0.78028448 
    4100    8.8207635   -271.05888    159.41458   -8365.1829   -8205.7684   0.78028448 
    4200    8.8581545    -277.5871    160.09034    -8363.953   -8203.8626   0.78028448 
    4300    9.2527549   -278.78112    167.22181   -8362.0781   -8194.8562   0.78028448 
    4400    9.4874815   -302.25419    171.46394    -8362.837    -8191.373   0.78028448 
    4500    9.3822172    -311.6332    169.56154   -8359.5853   -8190.0238   0.78028448 
    4600    9.7382406   -290.00919    175.99583   -8358.1961   -8182.2003   0.78028448 
    4700    9.7786031   -278.90972    176.72528    -8357.921   -8181.1957   0.78028448 
    4800    9.8840629   -270.51921    178.63122   -8361.5309   -8182.8997   0.78028448 
    4900    9.9925311   -310.91817    180.59153   -8356.5634   -8175.9719   0.78028448 
    5000    9.9938151   -296.56846    180.61474    -8355.169   -8174.5542   0.78028448 
    5100    10.190066   -299.60061     184.1615    -8351.992   -8167.8305   0.78028448 
    5200     10.54435   -304.40988    190.56436    -8351.777   -8161.2127   0.78028448 
    5300    10.509168   -303.15846    189.92854   -8348.0849   -8158.1563   0.78028448 
    5400    10.618358   -297.96834    191.90189   -8347.5628   -8155.6609   0.78028448 
    5500    10.889981   -298.74654    196.81082   -8347.6725   -8150.8617   0.78028448 
    5600    10.947534   -281.20087    197.85096   -8341.3546   -8143.5036   0.78028448 
    5700    10.995053   -295.35316    198.70976   -8341.2141   -8142.5043   0.78028448 
    5800    11.325391   -297.27396    204.67985    -8338.759   -8134.0791   0.78028448 
    5900    11.529765   -286.06689    208.37342   -8338.5173   -8130.1438   0.78028448 
    6000    11.376594   -264.36032    205.60522   -8331.4054   -8125.8002   0.78028448 
    6100    11.570524    -277.9668    209.11005   -8333.8443   -8124.7343   0.78028448 
    6200    11.553183   -295.79676    208.79664     -8335.64   -8126.8434   0.78028448 
    6300    11.833768   -247.92922    213.86756   -8337.0199   -8123.1524   0.78028448 
    6400    11.636572   -282.46103    210.30371   -8330.9571   -8120.6534   0.78028448 
    6500    11.996332   -272.62566    216.80553   -8333.0083   -8116.2028   0.78028448 
    6600     12.06578   -270.07263    218.06064   -8324.4825   -8106.4218   0.78028448 
    6700    12.396252   -271.40406    224.03315   -8322.5068   -8098.4737   0.78028448 
    6800    12.417263   -296.68209    224.41287    -8324.771   -8100.3581   0.78028448 
    6900     12.51109   -288.05769    226.10856   -8320.3403   -8094.2317   0.78028448 
    7000    12.425179   -287.06415    224.55594   -8321.7521   -8097.1961   0.78028448 
    7100    12.487883   -305.53229    225.68915   -8315.8091     -8090.12   0.78028448 
    7200    12.691015   -277.37483    229.36028   -8319.3777   -8090.0174   0.78028448 
    7300    12.800038   -272.81584    231.33063   -8317.0754   -8085.7448   0.78028448 
    7400    12.760329   -274.95023    230.61298   -8318.1011   -8087.4882   0.78028448 
    7500    12.955013   -264.00116    234.13143   -8315.2934    -8081.162   0.78028448 
    7600    12.885888   -259.67702    232.88216    -8308.917   -8076.0348   0.78028448 
    7700    13.135039   -271.92496    237.38498    -8314.252    -8076.867   0.78028448 
    7800    13.113612   -295.45225    236.99773   -8310.9276   -8073.9299   0.78028448 
    7900    13.452431   -295.35654     243.1211   -8306.9894   -8063.8683   0.78028448 
    8000    13.709576   -299.26197    247.76839   -8304.6526   -8056.8842   0.78028448 
    8100    13.588376   -296.62878    245.57798   -8305.7209   -8060.1429   0.78028448 
    8200    13.778832   -306.17421    249.02003   -8300.9205   -8051.9005   0.78028448 
    8300    14.038455   -295.41599     253.7121   -8300.6762   -8046.9641   0.78028448 
    8400     13.65802   -282.93668    246.83664   -8297.0121   -8050.1755   0.78028448 
    8500    13.904172   -291.68684    251.28524   -8301.8603    -8050.575   0.78028448 
    8600    14.116322    -257.3673    255.11937   -8294.5459   -8039.4265   0.78028448 
    8700    14.153497   -291.91154    255.79121    -8292.813   -8037.0218   0.78028448 
    8800    14.561471    -258.4112    263.16439   -8299.5028   -8036.3385   0.78028448 
    8900    14.349149   -275.91612    259.32716   -8299.8953   -8040.5681   0.78028448 
    9000    14.461282   -292.48104    261.35371   -8290.4799   -8029.1262   0.78028448 
    9100    14.640505   -267.31618    264.59275   -8292.1871   -8027.5943   0.78028448 
    9200    14.655474   -271.63082    264.86328   -8291.8082   -8026.9449   0.78028448 
    9300    14.842652   -273.27976    268.24607   -8286.8011   -8018.5551   0.78028448 
    9400    14.767761   -250.85681    266.89259   -8286.9389   -8020.0463   0.78028448 
    9500    14.854421   -322.11414    268.45878   -8289.3102   -8020.8514   0.78028448 
    9600    15.108605   -294.62905    273.05255   -8291.1232   -8018.0707   0.78028448 
    9700    15.134938   -282.40099    273.52846   -8287.4637   -8013.9353   0.78028448 
    9800    15.376182    -302.3821    277.88837   -8288.9205   -8011.0322   0.78028448 
    9900    15.367502   -300.57595    277.73151   -8279.9681   -8002.2365   0.78028448 
   10000     15.09496   -262.72735    272.80595   -8275.9733   -8003.1674   0.78028448 
   10100    15.374392   -278.16245    277.85603   -8278.1839   -8000.3279   0.78028448 
   10200    15.399265   -267.24276    278.30556   -8275.9243   -7997.6188   0.78028448 
   10300    15.753654   -313.55744     284.7103   -8281.6887   -7996.9784   0.78028448 
   10400    15.547213   -253.79847    280.97936   -8277.3192   -7996.3399   0.78028448 
   10500    15.707888   -261.68057    283.88318     -8269.69   -7985.8068   0.78028448 
   10600    15.907705   -281.32821    287.49441   -8278.8229   -7991.3285   0.78028448 
   10700    15.845201   -282.90843    286.36479    -8267.945   -7981.5802   0.78028448 
   10800    15.815159   -278.13619    285.82185    -8263.456   -7977.6341   0.78028448 
   10900    16.111204   -290.21123    291.17217   -8266.1695   -7974.9973   0.78028448 
   11000    16.204789   -268.61902    292.86351   -8268.5658   -7975.7023   0.78028448 
   11100    16.400979   -286.24129    296.40918   -8268.1316   -7971.7224   0.78028448 
   11200    16.462708   -271.34437    297.52479   -8271.3634   -7973.8386   0.78028448 
   11300    16.460583   -275.00185    297.48637   -8262.4938   -7965.0074   0.78028448 
   11400    16.228836   -266.12843     293.2981   -8257.0799   -7963.7818   0.78028448 
   11500    16.609215   -266.05677    300.17255   -8264.0351   -7963.8626   0.78028448 
   11600    16.692136   -260.67295    301.67116   -8258.5785   -7956.9073   0.78028448 
   11700     16.37542   -280.36652    295.94726   -8259.5161   -7963.5688   0.78028448 
   11800    16.508956   -286.79831     298.3606   -8256.6727   -7958.3121   0.78028448 
   11900    16.763412   -275.34802     302.9593   -8257.5164   -7954.5571   0.78028448 
   12000    17.188864   -251.31619    310.64834   -8261.0604   -7950.4121   0.78028448 
   12100    16.906687   -283.14935    305.54866   -8257.4292   -7951.8805   0.78028448 
   12200    16.862456   -283.48014    304.74928   -8247.3149   -7942.5656   0.78028448 
   12300    17.309755   -272.32679    312.83316   -8255.8157   -7942.9826   0.78028448 
   12400    16.891196    -262.2414     305.2687   -8252.5465   -7947.2778   0.78028448 
   12500    17.272435   -244.44809    312.15869   -8252.9139   -7940.7552   0.78028448 
   12600    17.468961   -257.14609    315.71043     -8250.57   -7934.8596   0.78028448 
   12700    17.274008   -264.21508    312.18712   -8243.5964   -7931.4093   0.78028448 
   12800    17.270972   -277.14375    312.13225   -8249.1092    -7936.977   0.78028448 
   12900    17.473037   -252.85112     315.7841   -8246.2257   -7930.4416   0.78028448 
   13000    17.499935   -279.66783    316.27022   -8250.4021   -7934.1319   0.78028448 
   13100    17.754038   -274.03213    320.86253   -8247.2074   -7926.3448   0.78028448 
   13200    18.033839   -308.23655    325.91929    -8242.013   -7916.0937   0.78028448 
   13300    17.807121   -261.65507    321.82188   -8237.7485   -7915.9266   0.78028448 
   13400     17.96495   -264.61337    324.67428   -8246.1064   -7921.4321   0.78028448 
   13500     17.96235   -283.95165    324.62729   -8244.6508   -7920.0235   0.78028448 
   13600    17.928487   -257.55318     324.0153    -8235.739   -7911.7237   0.78028448 
   13700    18.275962   -299.81061    330.29509   -8239.9195   -7909.6244   0.78028448 
   13800    18.662526   -274.68305    337.28132   -8236.1431   -7898.8618   0.78028448 
   13900     18.71437   -261.30895    338.21828   -8229.8858   -7891.6675   0.78028448 
   14000     18.33136   -270.00581    331.29628   -8237.3997   -7906.1035   0.78028448 
   14100    18.496951   -288.04877    334.28895   -8235.0807   -7900.7918   0.78028448 
   14200    18.587962    -264.8198    335.93375   -8234.7495   -7898.8157   0.78028448 
   14300    18.384809   -273.23145    332.26224   -8232.4052   -7900.1429   0.78028448 
   14400    18.559375   -234.97286    335.41712   -8233.4618   -7898.0447   0.78028448 
   14500    18.472312   -259.27645    333.84365   -8228.6465   -7894.8028   0.78028448 
   14600    18.781701   -283.44343    339.43513   -8234.8484   -7895.4133   0.78028448 
   14700    19.052503   -247.94143    344.32925   -8230.3042   -7885.9749   0.78028448 
   14800    18.814767   -274.43152    340.03272   -8237.8977    -7897.865   0.78028448 
   14900    19.102038   -266.31789    345.22448   -8232.3943   -7887.1698   0.78028448 
   15000    18.696923   -291.81797    337.90298   -8224.8495   -7886.9466   0.78028448 
   15100    19.031215    -265.2775    343.94452   -8223.0931   -7879.1486   0.78028448 
   15200    18.862007   -277.62697    340.88647   -8226.0668   -7885.1803   0.78028448 
   15300     19.23682   -312.78392    347.66035   -8228.5513    -7880.891   0.78028448 
   15400    19.117965   -293.98254    345.51231    -8229.414   -7883.9017   0.78028448 
   15500    19.377534   -268.86034    350.20341   -8228.5388   -7878.3354   0.78028448 
   15600    19.334661    -278.8871    349.42858   -8229.3094   -7879.8808   0.78028448 
   15700    19.823086   -290.30393    358.25572   -8225.8071   -7867.5514   0.78028448 
   15800    19.405298   -275.71921    350.70519    -8219.463   -7868.7579   0.78028448 
   15900    19.637833   -267.79587    354.90771   -8222.7714   -7867.8637   0.78028448 
   16000    19.361384   -274.16126    349.91154   -8222.3647   -7872.4531   0.78028448 
   16100    19.597754   -298.05988    354.18337   -8221.8647   -7867.6813   0.78028448 
   16200    19.457565   -276.55698    351.64979   -8220.0714   -7868.4216   0.78028448 
   16300    19.836347   -299.74922    358.49538   -8218.7301   -7860.2347   0.78028448 
   16400    19.848967   -250.43953    358.72347   -8222.1896   -7863.4661   0.78028448 
   16500     19.64157   -255.77424    354.97524   -8216.5837   -7861.6085   0.78028448 
   16600      19.6496     -266.012    355.12036    -8221.475   -7866.3546   0.78028448 
   16700    19.955489   -280.44114    360.64859   -8230.3832   -7869.7346   0.78028448 
   16800    19.875218   -308.19025    359.19788   -8214.1001   -7854.9022   0.78028448 
   16900    20.405519   -292.01166    368.78182   -8212.7682   -7843.9864   0.78028448 
   17000    20.457571   -272.70512    369.72255   -8207.8579   -7838.1353   0.78028448 
   17100    20.118995   -300.99811    363.60359   -8210.4058   -7846.8022   0.78028448 
   17200    20.757681    -254.1275    375.14634   -8212.4009   -7837.2546   0.78028448 
   17300    20.243586   -269.29931    365.85527   -8205.7843    -7839.929   0.78028448 
   17400    20.303045   -245.78002    366.92986   -8211.6784   -7844.7486   0.78028448 
   17500    20.332037   -263.50033    367.45382   -8223.9289   -7856.4751   0.78028448 
   17600    20.421276   -279.33902    369.06661   -8214.9103   -7845.8437   0.78028448 
   17700    20.521651   -250.31929    370.88064   -8217.1377   -7846.2571   0.78028448 
   17800    20.513664   -271.54115     370.7363    -8216.121   -7845.3847   0.78028448 
   17900    20.979399   -253.01225    379.15336   -8209.2425   -7830.0892   0.78028448 
   18000    20.791412   -244.94536    375.75594   -8210.5374   -7834.7815   0.78028448 
   18100    20.953135   -246.22206    378.67871    -8210.531   -7831.8523   0.78028448 
   18200    20.808295   -268.76725    376.06107   -8204.3269   -7828.2658   0.78028448 
   18300    20.902971   -312.40305    377.77211   -8201.6992   -7823.9271   0.78028448 
   18400    20.787138   -261.56337     375.6787   -8208.3111   -7832.6324   0.78028448 
   18500    20.931832   -246.58863     378.2937   -8201.4437     -7823.15   0.78028448 
   18600    21.224593    -259.4774    383.58466   -8205.5393   -7821.9546   0.78028448 
   18700    21.226595   -267.73603    383.62086    -8201.592   -7817.9712   0.78028448 
   18800     21.37264   -305.72016    386.26027   -8204.6075   -7818.3472   0.78028448 
   18900    21.254665   -288.78458    384.12815   -8204.6734   -7820.5452   0.78028448 
   19000    21.356368   -283.34413    385.96619   -8194.2486   -7808.2824   0.78028448 
   19100    21.338794    -234.6155    385.64859   -8203.3148   -7817.6662   0.78028448 
   19200    21.068568   -271.84913    380.76489   -8205.9398   -7825.1749   0.78028448 
   19300    21.402371   -251.69298     386.7976   -8203.6458   -7816.8482   0.78028448 
   19400    21.483925   -258.06007    388.27149   -8192.4903   -7804.2188   0.78028448 
   19500    21.649231   -302.52363    391.25901   -8188.2361   -7796.9771   0.78028448 
   19600    21.737547   -267.46598    392.85511   -8194.6553   -7801.8002   0.78028448 
   19700    21.897998   -239.92315    395.75489   -8190.7924   -7795.0375   0.78028448 
   19800    21.895667   -254.55367    395.71275   -8194.3725   -7798.6598   0.78028448 
   19900    22.260019   -268.49391    402.29756    -8191.477   -7789.1795   0.78028448 
   20000    21.642276     -259.525    391.13331   -8193.8012   -7802.6679   0.78028448 
   20100    22.195655   -243.64973    401.13434   -8183.2962   -7782.1618   0.78028448 
   20200    22.253389   -275.51797    402.17773   -8190.0791   -7787.9013   0.78028448 
   20300    22.333759    -293.1003    403.63024    -8181.733   -7778.1028   0.78028448 
   20400    22.223679    -254.5539     401.6408   -8183.2568    -7781.616   0.78028448 
   20500     21.98465    -263.4887    397.32092   -8192.5948   -7795.2739   0.78028448 
   20600    22.351095   -324.64828    403.94355   -8189.6336   -7785.6901   0.78028448 
   20700    22.279379   -252.98347    402.64744   -8182.7845    -7780.137   0.78028448 
   20800    22.570477   -270.13993    407.90836    -8181.236   -7773.3276   0.78028448 
   20900    22.766442   -268.39234    411.44996   -8180.6904   -7769.2404   0.78028448 
   21000    22.691074   -263.54596    410.08787   -8195.4329    -7785.345   0.78028448 
   21100    22.519802   -281.65388    406.99252   -8184.9661   -7777.9735   0.78028448 
   21200    22.464581   -247.26826    405.99454   -8186.7199   -7780.7253   0.78028448 
   21300    22.765239    -277.7688    411.42822   -8179.4331   -7768.0049   0.78028448 
   21400    22.430937   -309.52339    405.38651   -8186.3477   -7780.9612   0.78028448 
   21500    22.429089   -274.48405     405.3531   -8185.3748   -7780.0217   0.78028448 
   21600    22.959629    -289.4496    414.94138   -8178.4064    -7763.465   0.78028448 
   21700    22.633241   -256.48819    409.04268   -8189.6387    -7780.596   0.78028448 
   21800    23.013699   -291.22405    415.91855   -8189.9027   -7773.9841   0.78028448 
   21900    23.218629   -295.04298    419.62219   -8185.8299   -7766.2077   0.78028448 
   22000    23.215394   -286.26186    419.56372   -8182.7995   -7763.2358   0.78028448 
   22100    22.922311   -265.17426    414.26693   -8172.1881   -7757.9212   0.78028448 
   22200    22.916095    -282.0605    414.15459   -8178.8434   -7764.6888   0.78028448 
   22300    23.068721   -254.87763    416.91295   -8178.3853   -7761.4723   0.78028448 
   22400    23.449665   -259.57627    423.79761   -8181.6607   -7757.8631   0.78028448 
   22500    22.903397   -256.61384    413.92511   -8175.5438   -7761.6187   0.78028448 
   22600    23.335247   -273.40801    421.72979   -8175.6531   -7753.9234   0.78028448 
   22700    23.454679    -294.7389    423.88824   -8184.2973   -7760.4091   0.78028448 
   22800     23.38693    -259.1203    422.66383   -8176.4252   -7753.7614   0.78028448 
   22900    23.225722   -263.28437    419.75037   -8174.4718   -7754.7215   0.78028448 
   23000    23.431976   -269.03801    423.47794   -8181.9965   -7758.5186   0.78028448 
   23100    23.327649   -278.58483    421.59246    -8168.643   -7747.0506   0.78028448 
   23200    24.191158   -241.05966    437.19836   -8169.0266   -7731.8282   0.78028448 
   23300    23.178695   -283.93707    418.90046   -8168.8024    -7749.902   0.78028448 
   23400    23.338125   -268.47241    421.78179   -8164.5408    -7742.759   0.78028448 
   23500    23.565443   -286.21195    425.89004   -8169.3163   -7743.4263   0.78028448 
   23600    23.871451   -238.02436    431.42041   -8157.6551   -7726.2347   0.78028448 
   23700    24.063703   -278.24901    434.89491   -8169.5044   -7734.6095   0.78028448 
   23800    23.832929   -285.50153    430.72421   -8174.4621   -7743.7379   0.78028448 
   23900    23.468507   -242.84245    424.13815   -8162.5663   -7738.4282   0.78028448 
   24000     24.29274   -292.82597    439.03423   -8161.0723   -7722.0381   0.78028448 
   24100    23.570671   -258.95441    425.98451   -8160.8301   -7734.8456   0.78028448 
   24200    23.841265   -286.62311    430.87488   -8171.6843   -7740.8094   0.78028448 
   24300    23.891445   -321.45682    431.78175   -8166.9703   -7735.1886   0.78028448 
   24400    24.229286   -212.76113    437.88744   -8174.7443   -7736.8569   0.78028448 
   24500    24.187075   -261.63601    437.12458   -8160.9045   -7723.7799   0.78028448 
   24600    23.928351   -256.15687    432.44874   -8164.5563   -7732.1076   0.78028448 
   24700    23.992035    -238.0692    433.59969   -8157.2167    -7723.617   0.78028448 
   24800    24.349626   -287.42342     440.0623   -8169.9441   -7729.8818   0.78028448 
   24900    24.022082   -305.90036    434.14271   -8159.2229   -7725.0802   0.78028448 
   25000    24.451186    -275.7791    441.89775   -8160.3695   -7718.4717   0.78028448 
   25100    24.995443   -246.20501    451.73392    -8157.254   -7705.5201   0.78028448 
   25200    24.735238   -311.74466    447.03133   -8154.6151   -7707.5838   0.78028448 
   25300     24.70655   -255.94151    446.51286   -8153.8126   -7707.2997   0.78028448 
   25400    24.796585   -299.94616    448.14004   -8161.7746   -7713.6345   0.78028448 
   25500    24.750197   -253.03897    447.30169   -8152.6527   -7705.3511   0.78028448 
   25600    24.606815   -289.55864    444.71038   -8166.3145   -7721.6041   0.78028448 
   25700    25.440845   -249.29676    459.78352   -8162.1679   -7702.3844   0.78028448 
   25800    24.934703   -254.20557    450.63619   -8152.6374   -7702.0012   0.78028448 
   25900    24.217599   -298.13293    437.67621   -8155.2278   -7717.5516   0.78028448 
   26000    24.633511   -297.40085    445.19285   -8155.5748   -7710.3819   0.78028448 
   26100    25.215653   -235.06529    455.71371   -8157.4968   -7701.7831   0.78028448 
   26200    24.815936   -255.97299    448.48976   -8153.7346   -7705.2448   0.78028448 
   26300    24.614766   -281.40224    444.85408   -8151.3096   -7706.4555   0.78028448 
   26400    24.794636   -289.25704     448.1048   -8141.6247   -7693.5199   0.78028448 
   26500    24.841861   -253.96973     448.9583   -8156.7277   -7707.7694   0.78028448 
   26600    25.043462   -278.60006    452.60176   -8159.1755   -7706.5738   0.78028448 
   26700    24.977326   -258.57326     451.4065   -8151.8771   -7700.4706   0.78028448 
   26800    24.796303   -256.62605    448.13494   -8138.2216   -7690.0866   0.78028448 
   26900    25.282538   -244.39066     456.9225   -8142.5228   -7685.6003   0.78028448 
   27000    24.986755    -258.7863    451.57692   -8134.6881   -7683.1112   0.78028448 
   27100    25.535081   -260.84247    461.48661   -8134.6835   -7673.1969   0.78028448 
   27200    25.503194   -286.01738    460.91034   -8139.7561   -7678.8457   0.78028448 
   27300    26.095811   -234.94351    471.62049   -8147.2497   -7675.6292   0.78028448 
   27400    25.230003   -277.33074    455.97304   -8142.6414   -7686.6684   0.78028448 
   27500    25.503923   -241.33854    460.92351   -8142.6926   -7681.7691   0.78028448 
   27600    25.864066   -258.76092    467.43226   -8143.0017   -7675.5695   0.78028448 
   27700    25.535734   -305.37934    461.49842   -8139.3221   -7677.8237   0.78028448 
   27800      25.8399   -278.62381     466.9955   -8139.8996   -7672.9041   0.78028448 
   27900    25.742309   -202.03971    465.23178    -8134.728   -7669.4962   0.78028448 
   28000    25.898051   -265.08132    468.04645   -8149.0287   -7680.9822   0.78028448 
   28100    26.139526    -285.0639    472.41054   -8142.2888   -7669.8783   0.78028448 
   28200    25.926521   -236.94006    468.56097   -8132.1448   -7663.5838   0.78028448 
   28300    25.473097   -241.85457     460.3664   -8125.7465   -7665.3801   0.78028448 
   28400    26.080057   -266.02949    471.33579   -8138.4013   -7667.0655   0.78028448 
   28500    25.983194   -256.43949    469.58521   -8134.6519   -7665.0667   0.78028448 
   28600    25.218891   -242.99623    455.77223   -8125.4863   -7669.7141   0.78028448 
   28700    26.608687   -263.06525    480.88952   -8136.8387   -7655.9492   0.78028448 
   28800    26.556322    -271.3745    479.94315   -8134.7695   -7654.8264   0.78028448 
   28900    25.951639   -275.05561    469.01492   -8121.9429    -7652.928   0.78028448 
   29000    26.356777   -249.82871    476.33684   -8129.1479    -7652.811   0.78028448 
   29100    26.115131   -272.62052    471.96966    -8133.682   -7661.7124   0.78028448 
   29200    26.069589   -285.23029     471.1466   -8144.0676    -7672.921   0.78028448 
   29300    26.232366   -259.02936     474.0884   -8143.9065   -7669.8181   0.78028448 
   29400    25.868407   -241.11965     467.5107   -8134.0057    -7666.495   0.78028448 
   29500      26.3991   -276.84561    477.10172   -8134.9888   -7657.8871   0.78028448 
   29600    26.603681   -276.16878    480.79904    -8139.774   -7658.9749   0.78028448 
   29700    26.623393   -283.62674    481.15529   -8137.9151   -7656.7598   0.78028448 
   29800    27.394476   -290.81773    495.09082   -8142.8723   -7647.7815   0.78028448 
   29900    26.529614   -289.50105    479.46046   -8130.1796   -7650.7191   0.78028448 
   30000    26.313565   -252.53441    475.55589    -8143.025   -7667.4691   0.78028448 
   30100    26.703543   -299.27237    482.60382   -8123.0266   -7640.4228   0.78028448 
   30200    26.751187   -253.22514    483.46487   -8118.5029    -7635.038   0.78028448 
   30300    26.992817   -244.29562    487.83176   -8132.7084   -7644.8766   0.78028448 
   30400    26.627483   -243.54996    481.22922   -8126.7325   -7645.5033   0.78028448 
   30500    26.669133   -258.06421    481.98194   -8126.8684   -7644.8865   0.78028448 
   30600    26.980239   -262.09026    487.60445   -8114.6227   -7627.0182   0.78028448 
   30700    27.534774   -238.94159    497.62638   -8122.1807   -7624.5543   0.78028448 
   30800    26.665381   -279.97505    481.91413   -8126.1507   -7644.2365   0.78028448 
   30900    27.029671   -248.23012    488.49781   -8106.4355   -7617.9377   0.78028448 
   31000    27.408069   -264.49773    495.33647   -8123.9704   -7628.6339   0.78028448 
   31100    27.745719    -255.5985    501.43871   -8118.8441   -7617.4054   0.78028448 
   31200    27.467733   -230.04353    496.41476   -8114.9303   -7618.5156   0.78028448 
   31300    27.356479   -300.45216    494.40411   -8117.7035   -7623.2994   0.78028448 
   31400    27.027504   -287.86108    488.45866   -8117.8369   -7629.3783   0.78028448 
   31500    27.774523   -284.39565    501.95927   -8111.8693   -7609.9101   0.78028448 
   31600    27.350518   -273.75642    494.29637   -8105.6994    -7611.403   0.78028448 
   31700     27.84612    -282.8107    503.25322     -8111.25   -7607.9967   0.78028448 
   31800    27.785998   -306.36783    502.16666   -8108.3539   -7606.1873   0.78028448 
   31900    26.960369   -298.15788    487.24536   -8104.8851   -7617.6398   0.78028448 
   32000    27.697859   -248.98783    500.57375    -8102.607   -7602.0333   0.78028448 
   32100    27.578306   -232.07334    498.41311   -8113.5662   -7615.1531   0.78028448 
   32200    27.072064   -252.02087    489.26398    -8107.944   -7618.6801   0.78028448 
   32300    27.923296    -220.5812    504.64799   -8118.6241   -7613.9761   0.78028448 
   32400    27.225694   -265.48881    492.04047   -8123.6781   -7631.6376   0.78028448 
   32500     27.62116   -301.28451    499.18759   -8111.7137   -7612.5261   0.78028448 
   32600    28.836699    -284.0438    521.15561   -8123.1925   -7602.0369   0.78028448 
   32700    28.323316   -254.39316    511.87741   -8111.3781   -7599.5007   0.78028448 
   32800    27.931726   -281.39518    504.80034   -8115.7072   -7610.9068   0.78028448 
   32900    27.761711   -253.74768    501.72772   -8100.2541   -7598.5264   0.78028448 
   33000    28.170313   -287.73713    509.11224   -8111.4738   -7602.3615   0.78028448 
   33100     28.34424   -257.68911    512.25557   -8102.9169   -7590.6614   0.78028448 
   33200     28.37117    -280.7192    512.74226   -8106.1854   -7593.4431   0.78028448 
   33300    28.459899   -268.92786    514.34583   -8106.5174   -7592.1716   0.78028448 
   33400    28.803951   -258.25602    520.56375   -8099.4345   -7578.8708   0.78028448 
   33500    27.968586   -276.06761    505.46651   -8097.3079   -7591.8414   0.78028448 
   33600    28.112596   -294.67414    508.06914   -8114.6978   -7606.6287   0.78028448 
   33700    27.682845   -242.38754     500.3024   -8093.9369   -7593.6345   0.78028448 
   33800    28.812787    -277.9733    520.72346   -8109.7118   -7588.9884   0.78028448 
   33900    28.372657   -279.01725    512.76913    -8100.174   -7587.4048   0.78028448 
   34000    28.550949    -246.3643    515.99135   -8089.7188   -7573.7274   0.78028448 
   34100    28.487493   -270.41067    514.84453    -8109.092   -7594.2475   0.78028448 
   34200    28.612222   -251.42453    517.09871   -8097.6131   -7580.5144   0.78028448 
   34300    28.364448   -232.31049    512.62077   -8097.4771   -7584.8563   0.78028448 
   34400    28.951708   -297.21738    523.23412   -8099.7121    -7576.478   0.78028448 
   34500    28.839891   -228.99037     521.2133   -8091.3773    -7570.164   0.78028448 
   34600    28.759004    -268.5079    519.75145   -8098.4958   -7578.7444   0.78028448 
   34700    29.274894   -297.72238    529.07494   -8103.1031   -7574.0282   0.78028448 
   34800    28.310461   -219.21907     511.6451   -8103.0602   -7591.4151   0.78028448 
   34900    28.726806   -247.75153    519.16955   -8089.9555   -7570.7859   0.78028448 
   35000    28.153412   -261.03146    508.80681   -8095.8428    -7587.036   0.78028448 
   35100    28.496304   -253.80394    515.00377   -8093.0106   -7578.0069   0.78028448 
   35200    28.902309   -253.97354    522.34135   -8096.5611   -7574.2198   0.78028448 
   35300    29.046806   -256.57909     524.9528   -8091.1953   -7566.2425   0.78028448 
   35400    29.284684   -280.20322    529.25189   -8087.3455   -7558.0936   0.78028448 
   35500    28.909371    -283.6458    522.46899   -8098.0167   -7575.5477   0.78028448 
   35600    29.515171   -302.92188    533.41739   -8091.0125   -7557.5951   0.78028448 
   35700     29.17265   -249.43982    527.22712   -8091.9022   -7564.6751   0.78028448 
   35800     28.95163   -299.11383    523.23271   -8093.2585   -7570.0258   0.78028448 
   35900    29.070256   -275.79735     525.3766   -8091.9593   -7566.5827   0.78028448 
   36000    29.169274   -273.78339    527.16613   -8087.9246   -7560.7584   0.78028448 
   36100    29.682672   -223.79335    536.44459    -8104.881   -7568.4365   0.78028448 
   36200      29.5345   -239.40269    533.76672   -8093.9209   -7560.1542   0.78028448 
   36300    29.807799   -242.78379    538.70596   -8083.2403   -7544.5343   0.78028448 
   36400      29.3799   -260.38719     530.9727    -8085.167   -7554.1943   0.78028448 
   36500    29.191592   -259.44654    527.56946   -8083.3633   -7555.7939   0.78028448 
   36600    29.072991   -277.64437    525.42603   -8088.6481   -7563.2221   0.78028448 
   36700    29.112269    -293.3869    526.13589    -8086.833   -7560.6971   0.78028448 
   36800    29.664675   -256.77054    536.11933   -8094.4293   -7558.3099   0.78028448 
   36900    29.008544   -241.88208     524.2613   -8085.0923    -7560.831   0.78028448 
   37000    29.410797   -275.65615    531.53108   -8093.2248   -7561.6938   0.78028448 
   37100     30.06301   -254.91506     543.3183   -8089.4125   -7546.0942   0.78028448 
   37200    29.474013    -220.6693    532.67356   -8080.8894   -7548.2158   0.78028448 
   37300      29.8114   -255.83439    538.77103   -8085.2285   -7546.4575   0.78028448 
   37400    30.305834    -280.0072    547.70677   -8081.0386   -7533.3319   0.78028448 
   37500    30.634084   -288.72186    553.63912   -8087.6861    -7534.047   0.78028448 
   37600    29.911284   -251.34728    540.57621   -8081.5024   -7540.9262   0.78028448 
   37700    30.822618   -284.51909    557.04643   -8088.3765   -7531.3301   0.78028448 
   37800    30.024251   -256.35241    542.61782   -8091.9107   -7549.2929   0.78028448 
   37900    29.767172   -296.96424    537.97172   -8088.9717        -7551   0.78028448 
   38000    30.016637   -264.83113    542.48021   -8087.9675   -7545.4872   0.78028448 
   38100    31.008296   -283.73255    560.40213   -8076.0413   -7515.6392   0.78028448 
   38200    30.653398   -292.47673    553.98817   -8079.2676   -7525.2794   0.78028448 
   38300    30.417378   -255.33579    549.72267    -8072.793   -7523.0703   0.78028448 
   38400    30.494828   -289.44634     551.1224   -8076.1383   -7525.0159   0.78028448 
   38500    30.932857   -206.69678    559.03874   -8076.4452   -7517.4064   0.78028448 
   38600    30.815216   -284.83839    556.91266   -8071.9919   -7515.0792   0.78028448 
   38700    30.189814   -252.66251    545.60999   -8068.8106   -7523.2006   0.78028448 
   38800    30.086101   -265.88724    543.73561   -8077.5878   -7533.8522   0.78028448 
   38900    30.793351   -289.55102     556.5175   -8080.2027   -7523.6852   0.78028448 
   39000    30.585764    -260.3706    552.76585   -8061.9933   -7509.2275   0.78028448 
   39100    30.817955   -263.63055    556.96216   -8062.5971   -7505.6349   0.78028448 
   39200    30.132519   -277.42887    544.57452   -8064.6261   -7520.0516   0.78028448 
   39300    30.410268   -257.62826    549.59417   -8068.8052    -7519.211   0.78028448 
   39400    30.118566   -303.12929    544.32235   -8075.7544   -7531.4321   0.78028448 
   39500    31.314618   -261.08618    565.93817   -8072.7151   -7506.7769   0.78028448 
   39600    30.465213   -233.72622    550.58717   -8078.3839   -7527.7967   0.78028448 
   39700    31.154963   -288.74147    563.05278    -8064.567   -7501.5142   0.78028448 
   39800    31.576719   -240.86828    570.67504   -8066.5715   -7495.8965   0.78028448 
   39900    31.472408   -254.11088    568.78986   -8075.1067   -7506.3168   0.78028448 
   40000    30.505103   -237.83102    551.30809   -8077.7366   -7526.4285   0.78028448 
   40100    30.621626   -244.23613    553.41398   -8068.9938   -7515.5798   0.78028448 
   40200    30.714721   -271.18052    555.09645   -8069.8529   -7514.7565   0.78028448 
   40300    31.111093   -277.67348    562.25994   -8072.9168   -7510.6568   0.78028448 
   40400    31.276425   -224.51355    565.24793   -8066.7168   -7501.4689   0.78028448 
   40500    31.228406   -239.47454    564.38009   -8055.5612   -7491.1811   0.78028448 
   40600    31.290803   -314.07357    565.50778   -8074.0547   -7508.5469   0.78028448 
   40700    31.226018   -289.76858    564.33694   -8068.2271   -7503.8901   0.78028448 
   40800    30.653405   -232.50612     553.9883   -8075.0924   -7521.1041   0.78028448 
   40900    31.550805   -257.09752    570.20669   -8058.6654   -7488.4587   0.78028448 
   41000    31.179941   -309.81129     563.5042   -8052.7391   -7489.2349   0.78028448 
   41100    30.629025    -249.5906    553.54769   -8061.6031   -7508.0555   0.78028448 
   41200    31.252894   -270.96185    564.82266   -8057.4712   -7492.6485   0.78028448 
   41300    31.203493   -260.36649    563.92985    -8065.782   -7501.8521   0.78028448 
   41400    31.435533   -259.88843    568.12342   -8056.0752   -7487.9518   0.78028448 
   41500    31.559314   -267.55259    570.36047    -8051.237   -7480.8765   0.78028448 
   41600    31.696221   -293.56135    572.83475   -8060.1459   -7487.3112   0.78028448 
   41700    32.478275   -268.47304    586.96854   -8057.2808   -7470.3122   0.78028448 
   41800    31.252001   -226.45344    564.80653   -8052.6035    -7487.797   0.78028448 
   41900    31.519263   -225.71586    569.63665   -8067.1054   -7497.4688   0.78028448 
   42000    31.930784    -310.2459    577.07392   -8050.4633   -7473.3894   0.78028448 
   42100    31.099906   -234.75245    562.05777   -8055.4452   -7493.3874   0.78028448 
   42200    31.188068   -247.63699    563.65108   -8063.6015   -7499.9504   0.78028448 
   42300    31.806471   -257.27894    574.82726   -8050.1406   -7475.3133   0.78028448 
   42400    31.776189   -235.54288    574.27999   -8051.4145   -7477.1345   0.78028448 
   42500    32.885342   -284.09503    594.32531   -8063.9784   -7469.6531   0.78028448 
   42600    32.044055   -295.14114    579.12103   -8044.7163   -7465.5953   0.78028448 
   42700    32.104917   -247.22043    580.22096   -8062.8314   -7482.6104   0.78028448 
   42800     32.80836   -285.85876    592.93406   -8052.3652   -7459.4311   0.78028448 
   42900    32.029572   -223.47278     578.8593    -8053.885   -7475.0257   0.78028448 
   43000     32.72116   -273.20541    591.35812   -8062.5002   -7471.1421   0.78028448 
   43100    32.430903   -271.26634     586.1124   -8065.4371   -7479.3247   0.78028448 
   43200    32.961244    -266.9933    595.69707   -8057.3795   -7461.6824   0.78028448 
   43300    32.035412   -267.88339    578.96482   -8057.3175   -7478.3527   0.78028448 
   43400    32.231252   -296.37023    582.50418   -8064.1075   -7481.6033   0.78028448 
   43500    32.223911   -294.17933     582.3715   -8046.2632   -7463.8917   0.78028448 
   43600    32.470269   -260.82423    586.82384   -8063.2198    -7476.396   0.78028448 
   43700    31.825242   -299.36192     575.1665   -8049.5501   -7474.3836   0.78028448 
   43800    32.413335   -270.07864     585.7949   -8051.5334   -7465.7385   0.78028448 
   43900    32.064197   -290.52009    579.48505   -8056.5671    -7477.082   0.78028448 
   44000    31.861427   -252.12715    575.82046   -8055.1149   -7479.2944   0.78028448 
   44100    32.548424   -247.30612    588.23632   -8037.6919   -7449.4556   0.78028448 
   44200    33.731401   -224.44931    609.61586   -8038.6848   -7429.0689   0.78028448 
   44300    32.784615   -304.02575    592.50491   -8027.4866   -7434.9817   0.78028448 
   44400    33.635358   -258.15339     607.8801    -8043.638   -7435.7579   0.78028448 
   44500    33.421653   -239.60449    604.01789   -8040.8021   -7436.7842   0.78028448 
   44600    33.184771    -296.5667     599.7368   -8039.3128    -7439.576   0.78028448 
   44700    33.023547   -275.20638    596.82305    -8048.358   -7451.5349   0.78028448 
   44800     33.27155   -299.49244    601.30512   -8032.2374   -7430.9323   0.78028448 
   44900    32.832195   -254.55658    593.36482   -8046.2924   -7452.9275   0.78028448 
   45000    32.675267   -276.52056    590.52871   -8049.2543   -7458.7256   0.78028448 
   45100    33.099897   -248.25801    598.20289   -8048.6909    -7450.488   0.78028448 
   45200    32.400822   -285.76219    585.56875   -8046.0937   -7460.5249   0.78028448 
   45300     33.16303   -253.19821    599.34388   -8040.2783   -7440.9345   0.78028448 
   45400     32.63728   -296.22405    589.84219   -8044.3566   -7454.5145   0.78028448 
   45500    32.290346   -241.95023    583.57217   -8045.0651   -7461.4929   0.78028448 
   45600     32.62899   -273.07024    589.69235   -8044.8443    -7455.152   0.78028448 
   45700    32.902204   -293.74066    594.63006   -8045.4322   -7450.8022   0.78028448 
   45800     33.59337   -262.84147    607.12127   -8047.0344   -7439.9131   0.78028448 
   45900    33.244824   -286.73383    600.82211   -8038.4061    -7437.584   0.78028448 
   46000    33.072342   -302.22457     597.7049   -8037.3074   -7439.6025   0.78028448 
   46100    33.090546   -255.69031     598.0339   -8024.0734   -7426.0395   0.78028448 
   46200    34.052068   -265.50389    615.41115   -8039.7605   -7424.3493   0.78028448 
   46300    32.848242   -258.07217    593.65483   -8041.0551   -7447.4002   0.78028448 
   46400    33.663417   -285.32389     608.3872   -8052.7389   -7444.3517   0.78028448 
   46500    33.088356   -236.79151    597.99433   -8036.3431   -7438.3487   0.78028448 
   46600    33.814963   -247.84243    611.12604   -8038.5612   -7427.4351   0.78028448 
   46700    33.954701   -240.25484    613.65147   -8040.1265   -7426.4751   0.78028448 
   46800     33.09304   -235.04228    598.07898   -8026.7517   -7428.6728   0.78028448 
   46900    33.778358   -286.86931    610.46448   -8032.6375    -7422.173   0.78028448 
   47000     34.17203   -244.18853    617.57919   -8041.6848   -7424.1056   0.78028448 
   47100    33.649705    -238.1485    608.13939   -8018.3902   -7410.2508   0.78028448 
   47200     34.26178   -219.64931    619.20121   -8042.2998   -7423.0986   0.78028448 
   47300    34.357812   -256.73774    620.93677   -8029.2705   -7408.3338   0.78028448 
   47400    33.445698   -245.51978    604.45244   -8039.2027   -7434.7502   0.78028448 
   47500    33.343033   -245.19512    602.59702   -8030.7912   -7428.1942   0.78028448 
   47600    34.309724   -282.26462    620.06768   -8043.7822   -7423.7145   0.78028448 
   47700    33.776562   -245.98515    610.43203   -8024.4585   -7414.0265   0.78028448 
   47800    34.519428   -243.16187    623.85758   -8024.7893   -7400.9318   0.78028448 
   47900    34.023192   -231.97614    614.88929    -8022.987   -7408.0977   0.78028448 
   48000    33.554093   -260.43177    606.41142   -8017.4864    -7411.075   0.78028448 
   48100    34.459122    -210.3958     622.7677   -8029.3212   -7406.5535   0.78028448 
   48200    33.603839   -248.57797    607.31046     -8019.83   -7412.5195   0.78028448 
   48300    34.389973   -264.50786      621.518   -8014.1916   -7392.6736   0.78028448 
   48400    33.693669   -276.60853    608.93393   -8021.5662   -7412.6323   0.78028448 
   48500    33.973006   -252.00409     613.9823   -8012.1902   -7398.2079   0.78028448 
   48600    33.600593   -240.70444     607.2518    -8014.562   -7407.3102   0.78028448 
   48700    34.129807   -216.66219    616.81611   -8010.0761     -7393.26   0.78028448 
   48800    34.495003   -309.08809    623.41616   -8021.9492   -7398.5331   0.78028448 
   48900    34.534995   -291.39575    624.13893   -8005.8232   -7381.6842   0.78028448 
   49000    34.475518   -270.12606    623.06401   -8010.8036   -7387.7396   0.78028448 
   49100    34.195808   -225.85599    618.00891   -8014.8267   -7396.8178   0.78028448 
   49200    34.158254   -253.05459    617.33022   -8010.5225   -7393.1923   0.78028448 
   49300    34.616005   -260.19362    625.60299   -8013.5148   -7387.9118   0.78028448 
   49400     34.11377   -250.51967    616.52627   -8012.7089   -7396.1827   0.78028448 
   49500    35.629414   -250.38796    643.91797   -8027.0467   -7383.1287   0.78028448 
   49600    34.921426   -297.93636    631.12275    -8020.784   -7389.6613   0.78028448 
   49700     35.07717    -272.3779    633.93747   -8036.1071   -7402.1697   0.78028448 
   49800    33.948679   -276.05629    613.54264   -8017.5829   -7404.0402   0.78028448 
   49900    34.738068   -289.47907    627.80898   -8003.1439   -7375.3349   0.78028448 
   50000    35.153964   -284.06793    635.32533   -8023.6135   -7388.2882   0.78028448 
   50100    35.425576   -280.12487    640.23408   -8023.2012   -7382.9671   0.78028448 
   50200    34.492728   -264.78445    623.37505   -8025.8204   -7402.4453   0.78028448 
   50300    35.182958   -264.49232    635.84932   -8007.9741   -7372.1248   0.78028448 
   50400     34.48216   -251.22095    623.18405   -8005.1736   -7381.9895   0.78028448 
   50500     34.99527   -206.00107    632.45732   -8011.2659   -7378.8086   0.78028448 
   50600    35.517172   -239.97945    641.88946   -8019.0112   -7377.1217   0.78028448 
   50700    35.074585   -212.40352    633.89075    -8033.106   -7399.2152   0.78028448 
   50800    35.086511    -264.9289    634.10627   -8020.3514   -7386.2451   0.78028448 
   50900    34.872961   -224.17925    630.24687   -8032.4405   -7402.1936   0.78028448 
   51000    34.807827   -248.36984    629.06972   -7995.0019   -7365.9322   0.78028448 
   51100    35.007353   -240.20445    632.67569   -7997.5389   -7364.8633   0.78028448 
   51200    35.280907   -298.41723    637.61953   -8006.4067   -7368.7872   0.78028448 
   51300    34.916844   -249.26639    631.03994   -8009.9906   -7378.9507   0.78028448 
   51400    34.712338   -245.87674    627.34398    -8000.536    -7373.192   0.78028448 
   51500    34.874011   -197.33613    630.26585   -8022.7259   -7392.4601   0.78028448 
   51600    34.846994   -226.37037    629.77757   -8011.9654   -7382.1879   0.78028448 
   51700    35.096486   -259.03817    634.28656   -8014.9482   -7380.6617   0.78028448 
   51800    34.909797   -261.55707    630.91259   -8014.7729   -7383.8603   0.78028448 
   51900    35.665018    -264.3837    644.56144   -8005.4332   -7360.8718   0.78028448 
   52000    35.216723   -224.82359    636.45955   -7996.1211   -7359.6615   0.78028448 
   52100    35.299944   -297.03897    637.96358   -8005.6774   -7367.7138   0.78028448 
   52200    36.377356   -249.28462    657.43527   -8001.4123   -7343.9771   0.78028448 
   52300    35.887014   -261.05484    648.57348    -7999.627   -7351.0535   0.78028448 
   52400    35.605207    -271.7758    643.48048   -8004.6295    -7361.149   0.78028448 
   52500    36.274699   -279.29358    655.57998   -8006.4241   -7350.8441   0.78028448 
   52600    36.012511   -299.03292    650.84156   -7997.9706    -7347.129   0.78028448 
   52700    35.475558   -272.29357    641.13738     -7999.19   -7358.0527   0.78028448 
   52800    35.277403   -244.26124     637.5562   -7996.2749   -7358.7187   0.78028448 
   52900    36.389027   -279.27836    657.64621   -8005.0679   -7347.4217   0.78028448 
   53000    36.751992   -284.89978    664.20594   -8004.8842   -7340.6783   0.78028448 
   53100    36.002691   -269.64988    650.66407   -8016.8416   -7366.1775   0.78028448 
   53200    35.463227   -237.37859    640.91453   -7993.3303   -7352.4158   0.78028448 
   53300    36.029724   -282.52104    651.15265   -8001.9232   -7350.7706   0.78028448 
   53400    35.304799   -295.45652    638.05132   -7991.9656   -7353.9143   0.78028448 
   53500    35.174779   -257.54089    635.70152   -8009.7529   -7374.0514   0.78028448 
   53600    36.125063   -282.60131    652.87567   -8002.2025   -7349.3269   0.78028448 
   53700    36.240333   -270.60117     654.9589   -7994.2957   -7339.3368   0.78028448 
   53800     36.37978   -264.49049    657.47908   -7992.1345   -7334.6554   0.78028448 
   53900    35.832907   -268.26123    647.59564   -7991.6636    -7344.068   0.78028448 
   54000    35.748645   -271.71339    646.07279   -7991.7235   -7345.6507   0.78028448 
   54100    36.560585   -265.73474    660.74671   -8005.2787    -7344.532   0.78028448 
   54200    36.463537   -312.13279     658.9928   -7997.8926   -7338.8998   0.78028448 
   54300    35.744376   -290.05458    645.99565   -7984.6286   -7338.6329   0.78028448 
   54400    36.236203   -207.85696    654.88426   -7999.9832    -7345.099   0.78028448 
   54500    35.707821   -231.69876    645.33499   -7987.6839   -7342.3489   0.78028448 
   54600    36.702365   -261.84124    663.30904   -7974.8257   -7311.5167   0.78028448 
   54700    36.515971   -263.82413    659.94042    -7998.492   -7338.5515   0.78028448 
   54800     36.79459   -290.79481    664.97579   -7984.6967   -7319.7209   0.78028448 
   54900    36.125189   -246.42559    652.87795   -7999.2289    -7346.351   0.78028448 
   55000    37.000039   -244.43887     668.6888   -7991.6774   -7322.9886   0.78028448 
   55100     36.23056   -235.20242    654.78229   -7990.8955   -7336.1132   0.78028448 
   55200    36.075429   -235.25269    651.97865   -7974.0235   -7322.0448   0.78028448 
   55300    36.804558    -224.6604    665.15595   -7976.3655   -7311.2095   0.78028448 
   55400    36.213448   -266.88039    654.47302   -7992.3206   -7337.8476   0.78028448 
   55500    37.558172   -243.79027    678.77575   -7999.8204   -7321.0446   0.78028448 
   55600    36.614559     -310.831    661.72216   -7998.7774   -7337.0552   0.78028448 
   55700    36.528141   -289.18977    660.16036   -7995.6301   -7335.4697   0.78028448 
   55800    37.117078   -265.41275    670.80402   -7987.7795   -7316.9755   0.78028448 
   55900    36.696197   -299.91019    663.19758   -7984.4981   -7321.3006   0.78028448 
   56000    37.085488   -252.91919    670.23309   -7992.6486   -7322.4155   0.78028448 
   56100     37.82765   -243.79389    683.64594   -7989.3961   -7305.7502   0.78028448 
   56200    36.117934   -259.72872    652.74683   -7975.7295   -7322.9826   0.78028448 
   56300    37.259725   -271.25686    673.38202   -7981.9953   -7308.6133   0.78028448 
   56400    37.067711   -269.49324    669.91181   -7982.7767   -7312.8649   0.78028448 
   56500    37.018284   -270.27075    669.01854   -7977.8139   -7308.7954   0.78028448 
   56600    37.113464   -255.45381    670.73869   -7981.3863   -7310.6476   0.78028448 
   56700    36.773521   -310.37888    664.59502   -7982.4186   -7317.8236   0.78028448 
   56800    36.665014   -293.58179    662.63401    -7976.528   -7313.8939   0.78028448 
   56900    37.472385   -304.59829    677.22535   -7986.1555   -7308.9301   0.78028448 
   57000    37.085212   -257.40229    670.22811   -7977.4802   -7307.2521   0.78028448 
   57100     37.34532   -270.07246    674.92894   -7976.2763   -7301.3473   0.78028448 
   57200    37.915429   -231.71585    685.23233   -7975.3819   -7290.1495   0.78028448 
   57300    38.239684   -260.08551    691.09247   -7974.7776   -7283.6851   0.78028448 
   57400    37.631854   -227.65681    680.10738   -7975.3795   -7295.2721   0.78028448 
   57500    36.867814   -233.14097    666.29915    -7956.583   -7290.2839   0.78028448 
   57600    38.603988   -270.97753    697.67642   -7977.5237   -7279.8473   0.78028448 
   57700    38.508405   -178.58088    695.94897   -7980.5162   -7284.5672   0.78028448 
   57800     37.41472   -222.46791    676.18319   -7957.0765   -7280.8933   0.78028448 
   57900    37.016885   -242.67957    668.99326   -7990.5893    -7321.596   0.78028448 
   58000    37.880271   -223.12809    684.59694   -7968.8423   -7284.2454   0.78028448 
   58100    37.491319   -286.58705    677.56753   -7978.3865   -7300.8189   0.78028448 
   58200      37.5814   -271.69043    679.19554    -7980.707   -7301.5115   0.78028448 
   58300    38.713666   -282.60519    699.65859    -7973.623   -7273.9644   0.78028448 
   58400    37.565914   -230.98366    678.91567   -7987.8433   -7308.9277   0.78028448 
   58500    37.436487   -247.42837    676.57657   -7970.6922   -7294.1156   0.78028448 
   58600    37.199627   -292.76494     672.2959   -7995.1596   -7322.8637   0.78028448 
   58700    36.509718   -289.52663     659.8274   -7953.7145   -7293.8871   0.78028448 
   58800    38.121212   -207.87331    688.95136   -7966.0749   -7277.1236   0.78028448 
   58900    37.978275   -249.61841    686.36813    -7950.528   -7264.1598   0.78028448 
   59000    37.590909   -271.74119    679.36739   -7963.4677   -7284.1003   0.78028448 
   59100    38.220434   -265.29362    690.74459    -7986.343   -7295.5984   0.78028448 
   59200    37.865577   -270.98354    684.33137   -7954.6073    -7270.276   0.78028448 
   59300    39.690989   -278.85282     717.3214   -7961.6467   -7244.3253   0.78028448 
   59400    38.060431   -241.54596    687.85289   -7974.0543   -7286.2015   0.78028448 
   59500    38.330971   -260.22253    692.74228   -7953.6917   -7260.9494   0.78028448 
   59600    38.328058   -299.99587    692.68963   -7962.1531   -7269.4634   0.78028448 
   59700    37.932953   -266.53014    685.54903   -7961.9314   -7276.3824   0.78028448 
   59800    37.368222   -226.28852    675.34285   -7960.9552   -7285.6124   0.78028448 
   59900    37.937694   -289.20572    685.63472   -7954.7912   -7269.1565   0.78028448 
   60000    38.461421   -261.90473    695.09986   -7948.9701   -7253.8702   0.78028448 
   60100    37.383722   -216.13167    675.62298   -7972.8068   -7297.1839   0.78028448 
   60200     38.93666   -266.85623    703.68869   -7970.1315   -7266.4428   0.78028448 
   60300     39.08964   -251.87816    706.45343   -7940.6826   -7234.2292   0.78028448 
   60400    39.465258   -276.50151    713.24184   -7969.7727   -7256.5308   0.78028448 
   60500    38.846256   -216.61947    702.05485   -7966.3967   -7264.3418   0.78028448 
   60600     38.79271   -263.72565    701.08712   -7970.6253   -7269.5382   0.78028448 
   60700     38.16862   -304.88796    689.80816   -7960.9892    -7271.181   0.78028448 
   60800    38.151634   -286.06372    689.50118   -7967.8044   -7278.3032   0.78028448 
   60900    39.312886   -244.28092    710.48808   -7974.2454   -7263.7573   0.78028448 
   61000    38.098028   -184.79642    688.53237   -7954.5952   -7266.0629   0.78028448 
   61100    39.263777   -252.07557    709.60055   -7934.4869   -7224.8863   0.78028448 
   61200    39.190227   -256.95917    708.27131   -7946.9092   -7238.6379   0.78028448 
   61300    39.087359    -233.9137    706.41221   -7956.9001   -7250.4879   0.78028448 
   61400    38.624256   -253.76384    698.04272   -7962.2251   -7264.1824   0.78028448 
   61500    38.462669   -228.71195    695.12241   -7967.1975   -7272.0751   0.78028448 
   61600    38.459345   -297.71315    695.06233   -7959.0006   -7263.9383   0.78028448 
   61700    38.978871   -273.44375    704.45155   -7940.3206    -7235.869   0.78028448 
   61800     38.32664     -280.109    692.66399   -7957.3546   -7264.6906   0.78028448 
   61900    38.506384   -259.42938    695.91246   -7953.8433   -7257.9309   0.78028448 
   62000    38.590444   -275.14957    697.43163   -7949.2646    -7251.833   0.78028448 
   62100    38.548757   -256.26252    696.67825   -7954.5925   -7257.9142   0.78028448 
   62200    38.895558   -306.49359    702.94587   -7947.3433   -7244.3974   0.78028448 
   62300    38.940892   -222.91737    703.76516   -7956.1338   -7252.3686   0.78028448 
   62400    38.920009   -245.05148    703.38775   -7947.5038    -7244.116   0.78028448 
   62500    38.966214   -290.28984    704.22281   -7976.0163   -7271.7935   0.78028448 
   62600     39.90177   -313.77773    721.13078   -7949.3149   -7228.1841   0.78028448 
   62700    39.614072   -286.68696    715.93131   -7961.0769   -7245.1456   0.78028448 
   62800    39.483242   -295.07693    713.56687   -7930.1918   -7216.6249   0.78028448 
   62900    39.057077   -306.36567    705.86493   -7944.4637   -7238.5988   0.78028448 
   63000    39.744044   -231.57273    718.28026   -7945.7707   -7227.4905   0.78028448 
   63100    40.080386   -242.73927    724.35883   -7966.7495   -7242.3906   0.78028448 
   63200    39.561733   -268.61016    714.98541   -7937.6298   -7222.6444   0.78028448 
   63300    39.504045   -286.52951    713.94283   -7952.0159   -7238.0731   0.78028448 
   63400    39.585375   -247.04039    715.41268   -7942.6439   -7227.2312   0.78028448 
   63500    39.390647   -325.55001    711.89344   -7929.5449   -7217.6514   0.78028448 
   63600    40.197125   -249.39067    726.46862   -7930.4888   -7204.0202   0.78028448 
   63700    40.043131    -263.5744    723.68555   -7935.6175   -7211.9319   0.78028448 
   63800     40.52279   -269.36847    732.35425   -7931.7585   -7199.4043   0.78028448 
   63900    39.433602   -271.29803    712.66975    -7933.935   -7221.2653   0.78028448 
   64000    38.640174   -265.58645    698.33039   -7943.9639   -7245.6335   0.78028448 
   64100    38.949182   -281.55491    703.91498   -7928.7265   -7224.8115   0.78028448 
   64200    39.827826   -279.97434    719.79441   -7929.2551   -7209.4607   0.78028448 
   64300    40.226499   -319.13838    726.99948   -7938.1504   -7211.1509   0.78028448 
   64400      40.0602   -222.53743    723.99403   -7929.3066   -7205.3126   0.78028448 
   64500    40.145319   -281.65869    725.53235   -7939.6478   -7214.1155   0.78028448 
   64600    40.708256   -212.43769    735.70612   -7943.1017   -7207.3956   0.78028448 
   64700    39.759746   -335.38377    718.56402    -7930.589    -7212.025   0.78028448 
   64800    40.695224   -277.68017    735.47059   -7952.1891   -7216.7185   0.78028448 
   64900     41.37126   -270.73798    747.68836   -7949.2775   -7201.5891   0.78028448 
   65000    40.319406   -195.04783    728.67857   -7938.0624   -7209.3838   0.78028448 
   65100    40.954568   -275.67381    740.15763   -7936.8596    -7196.702   0.78028448 
   65200    39.950119   -276.16928    722.00458   -7926.7874   -7204.7828   0.78028448 
   65300    39.720274   -239.71043    717.85067   -7933.8937   -7216.0431   0.78028448 
   65400    40.090544   -231.25848    724.54243   -7922.1554   -7197.6129   0.78028448 
   65500    40.343247    -257.0738    729.10945    -7939.312   -7210.2025   0.78028448 
   65600    40.435839   -220.95706    730.78282   -7930.7487   -7199.9659   0.78028448 
   65700    40.474574   -240.88466    731.48287   -7937.8021   -7206.3192   0.78028448 
   65800    41.093979   -239.93331    742.67716   -7917.8636   -7175.1864   0.78028448 
   65900    39.812741   -237.98524    719.52178    -7916.807   -7197.2852   0.78028448 
   66000    40.803925   -230.35651    737.43511   -7922.4135   -7184.9784   0.78028448 
   66100    40.495884   -259.40658    731.86799   -7930.9708   -7199.1029   0.78028448 
   66200    40.692258   -211.86269    735.41699   -7945.3105   -7209.8936   0.78028448 
   66300    40.695774     -252.647    735.48053   -7932.3629   -7196.8823   0.78028448 
   66400    40.691604    -239.9108    735.40518   -7930.0689   -7194.6637   0.78028448 
   66500    39.867107   -291.77612    720.50433   -7924.7451   -7204.2407   0.78028448 
   66600    39.681457   -259.89267    717.14914   -7929.2009   -7212.0517   0.78028448 
   66700    39.723503   -284.25431    717.90902   -7948.0545   -7230.1454   0.78028448 
   66800    40.586113   -234.64501    733.49866   -7915.8641   -7182.3655   0.78028448 
   66900    40.907449   -272.95222    739.30606   -7918.1238   -7178.8178   0.78028448 
   67000    40.481736   -229.56884    731.61229   -7936.6764   -7205.0641   0.78028448 
   67100    41.493286    -232.3616     749.8937   -7936.0012   -7186.1075   0.78028448 
   67200    40.567174   -272.75284    733.15638   -7936.6901   -7203.5337   0.78028448 
   67300     40.47151   -248.48688    731.42749   -7933.8316   -7202.4041   0.78028448 
   67400    41.915952   -273.56832    757.53239   -7937.2944   -7179.7621   0.78028448 
   67500     40.93251   -257.79953    739.75898   -7943.8032   -7204.0442   0.78028448 
   67600    41.767877   -252.72272    754.85628   -7916.0854   -7161.2292   0.78028448 
   67700    41.542045   -274.31609     750.7749   -7909.8147   -7159.0398   0.78028448 
   67800    42.108025   -217.45638    761.00365   -7913.6836   -7152.6799   0.78028448 
   67900    41.276371   -268.51992    745.97345   -7933.9728   -7187.9994   0.78028448 
   68000    40.588276   -278.86822    733.53776   -7939.6525   -7206.1147   0.78028448 
   68100    41.027887   -282.24525     741.4827   -7922.0909   -7180.6082   0.78028448 
   68200    41.005421   -224.01119    741.07668   -7911.8022   -7170.7255   0.78028448 
   68300    41.362305   -266.47403    747.52651   -7907.1315    -7159.605   0.78028448 
   68400    40.944942   -242.07731    739.98366   -7905.3505   -7165.3668   0.78028448 
   68500    41.078331   -289.64081    742.39435   -7925.7688   -7183.3745   0.78028448 
   68600     41.14492   -310.75693    743.59779    -7934.233   -7190.6353   0.78028448 
   68700    42.169381   -236.72548    762.11252    -7924.291   -7162.1785   0.78028448 
   68800    41.831985   -299.59545    756.01489   -7936.2408   -7180.2259   0.78028448 
   68900    41.256476   -296.64585     745.6139   -7915.1398   -7169.5259   0.78028448 
   69000    40.839597   -211.76656    738.07979   -7899.6298     -7161.55   0.78028448 
   69100    41.881695   -191.73476    756.91327   -7897.5489   -7140.6356   0.78028448 
   69200    41.573534   -280.69896    751.34398   -7923.3021   -7171.9581   0.78028448 
   69300    40.455176   -261.30518    731.13229   -7912.9152   -7181.7829   0.78028448 
   69400    41.480528   -273.79633    749.66311   -7938.4387   -7188.7756   0.78028448 
   69500    41.379936   -321.97674    747.84516   -7913.5729   -7165.7278   0.78028448 
   69600    41.786431   -270.69753     755.1916   -7928.2865   -7173.0949   0.78028448 
   69700    41.769884   -206.19154    754.89255   -7905.6324   -7150.7398   0.78028448 
   69800    41.125068   -294.68707    743.23902    -7899.732    -7156.493   0.78028448 
   69900    41.400455   -244.42144    748.21598   -7891.4666   -7143.2506   0.78028448 
   70000    41.628699   -277.36208    752.34096   -7916.1031   -7163.7621   0.78028448 
   70100    42.191565   -259.85789    762.51345   -7908.8228   -7146.3093   0.78028448 
   70200    41.283406   -339.57809     746.1006   -7939.8351   -7193.7345   0.78028448 
   70300    41.452462   -250.34969    749.15589     -7926.57   -7177.4141   0.78028448 
   70400    41.273291    -240.9846    745.91779   -7923.9495   -7178.0317   0.78028448 
   70500    41.640723   -265.90732    752.55826   -7915.3473   -7162.7891   0.78028448 
   70600     41.48975   -300.26097    749.82978   -7886.7369   -7136.9071   0.78028448 
   70700    41.585353   -259.15278    751.55758   -7902.9005    -7151.343   0.78028448 
   70800    42.382217   -240.26644    765.95903   -7937.2823   -7171.3232   0.78028448 
   70900    42.231161   -245.73264    763.22905   -7897.0404   -7133.8113   0.78028448 
   71000    42.323253    -275.3611     764.8934   -7908.4599   -7143.5665   0.78028448 
   71100    42.097905   -243.72236    760.82077   -7896.4849   -7135.6641   0.78028448 
   71200    42.270017   -289.39969    763.93128   -7908.3454   -7144.4141   0.78028448 
   71300    42.064178   -320.45405    760.21123   -7893.5395   -7133.3283   0.78028448 
   71400    42.548762   -312.18218    768.96895   -7913.5799   -7144.6109   0.78028448 
   71500    42.311777   -243.82297      764.686   -7899.4539   -7134.7679   0.78028448 
   71600    41.829168   -327.69458    755.96398   -7904.5152   -7148.5513   0.78028448 
   71700    41.204708   -318.77782    744.67832   -7911.9558   -7167.2775   0.78028448 
   71800    42.720785   -274.37029    772.07786    -7907.917   -7135.8391   0.78028448 
   71900    42.852793   -270.33269    774.46358   -7888.6043   -7114.1407   0.78028448 
   72000    42.627092   -266.98009    770.38456   -7909.5764   -7139.1918   0.78028448 
   72100    41.788356   -242.12081    755.22639   -7896.2277   -7141.0013   0.78028448 
   72200    42.222838   -277.94135    763.07863   -7924.3865   -7161.3078   0.78028448 
   72300    42.035468    -253.6074    759.69235   -7908.8292   -7149.1368   0.78028448 
   72400    43.334315   -292.01994    783.16597    -7906.157    -7122.991   0.78028448 
   72500    42.208979   -255.85145    762.82817    -7906.719   -7143.8908   0.78028448 
   72600    42.968311   -283.11647     776.5513   -7920.9037   -7144.3524   0.78028448 
   72700    42.424687   -228.67108    766.72657   -7897.1264   -7130.3998   0.78028448 
   72800    43.806399    -294.4251    791.69778   -7903.0682   -7111.3704   0.78028448 
   72900    41.926731   -234.99992    757.72719   -7889.1283   -7131.4011   0.78028448 
   73000    41.336864   -194.27303    747.06672   -7894.9028   -7147.8361   0.78028448 
   73100    42.806167    -260.7326    773.62092   -7878.8445   -7105.2236   0.78028448 
   73200    42.549166   -285.54905    768.97624   -7903.4614   -7134.4851   0.78028448 
   73300     41.55799   -260.22198    751.06307   -7910.2744   -7159.2113   0.78028448 
   73400    42.590998    -259.9694    769.73226   -7895.0777   -7125.3454   0.78028448 
   73500    42.079011   -290.00347     760.4793   -7879.6794   -7119.2001   0.78028448 
   73600    42.730983   -241.18932    772.26215     -7906.71   -7134.4479   0.78028448 
   73700    42.969503   -270.86496    776.57284   -7921.7834   -7145.2105   0.78028448 
   73800     43.00784   -307.29014     777.2657   -7910.5663   -7133.3006   0.78028448 
   73900     43.37232   -262.70819    783.85282    -7897.048   -7113.1952   0.78028448 
   74000    43.064389   -232.67824    778.28768     -7890.62   -7112.3323   0.78028448 
   74100    43.781607   -278.54182    791.24971   -7871.5328   -7080.2831   0.78028448 
   74200     43.61178   -283.84105    788.18049   -7900.3227   -7112.1422   0.78028448 
   74300    42.932458   -196.89659    775.90335   -7889.7871   -7113.8837   0.78028448 
   74400    43.238237   -317.10075    781.42957   -7884.5837   -7103.1541   0.78028448 
   74500    43.609742    -213.1049    788.14366   -7889.5258   -7101.3822   0.78028448 
   74600    43.032619   -265.89451    777.71352   -7898.5958   -7120.8823   0.78028448 
   74700    43.421558   -234.56669    784.74268   -7886.0937    -7101.351   0.78028448 
   74800    43.840465   -292.34538    792.31344   -7890.3632   -7098.0498   0.78028448 
   74900     43.47999   -245.11068    785.79871   -7898.2033   -7112.4046   0.78028448 
   75000    43.521394   -249.98253    786.54697   -7883.4707   -7096.9237   0.78028448 
   75100    42.384168   -233.31592    765.99429   -7894.1943      -7128.2   0.78028448 
   75200    42.884168   -252.08419    775.03062   -7874.3648   -7099.3342   0.78028448 
   75300    42.958266   -279.24053    776.36976    -7925.468   -7149.0982   0.78028448 
   75400     43.58721   -251.21825    787.73645   -7888.4945    -7100.758   0.78028448 
   75500    43.927123   -326.44062    793.87957   -7903.7738   -7109.8942   0.78028448 
   75600    42.945893    -234.3807    776.14615   -7900.3739   -7124.2278   0.78028448 
   75700    42.863468   -261.36293     774.6565    -7882.938   -7108.2815   0.78028448 
   75800    43.906146   -303.15659    793.50047   -7909.8938   -7116.3933   0.78028448 
   75900    43.100943   -202.33655    778.94831   -7888.9227   -7109.9744   0.78028448 
   76000    43.857223    -266.2577     792.6163   -7880.6377   -7088.0214   0.78028448 
   76100    42.691219     -236.346    771.54351   -7890.2717   -7118.7282   0.78028448 
   76200    43.761589   -280.91532    790.88794   -7872.4468   -7081.5588   0.78028448 
   76300    43.654226   -251.13266    788.94761   -7902.7836    -7113.836   0.78028448 
   76400    42.660865    -198.4068    770.99493   -7868.8673   -7097.8723   0.78028448 
   76500    43.055091   -242.97322    778.11965   -7877.6246    -7099.505   0.78028448 
   76600    43.241109   -255.77685    781.48149   -7876.9679   -7095.4864   0.78028448 
   76700    43.317472   -287.44206    782.86156   -7872.3064   -7089.4448   0.78028448 
   76800    42.694709   -243.81524    771.60658   -7886.4282   -7114.8216   0.78028448 
   76900    45.211743   -259.02393    817.09606   -7889.4563   -7072.3602   0.78028448 
   77000    44.943785    -232.2535    812.25336   -7889.0783   -7076.8249   0.78028448 
   77100    44.377683   -216.12566    802.02239   -7858.4427   -7056.4203   0.78028448 
   77200    43.919739   -291.85979    793.74613   -7880.9199   -7087.1737   0.78028448 
   77300    43.085697   -292.27976    778.67278    -7869.983   -7091.3103   0.78028448 
   77400    44.066266   -273.02635    796.39427   -7869.7238   -7073.3295   0.78028448 
   77500      43.2554   -248.55631    781.73976    -7870.356   -7088.6162   0.78028448 
   77600    44.223636   -323.14669    799.23835   -7861.4108   -7062.1724   0.78028448 
   77700    43.531479   -274.45713    786.72924    -7892.958   -7106.2287   0.78028448 
   77800    44.219612   -252.31223    799.16563   -7888.8133   -7089.6477   0.78028448 
   77900    44.174008   -235.74156    798.34144   -7890.7912   -7092.4497   0.78028448 
   78000     44.99027   -252.52247    813.09346   -7877.4296   -7064.3361   0.78028448 
   78100    44.256284   -274.61996    799.82839   -7886.2673   -7086.4389   0.78028448 
   78200    44.847987   -241.61491    810.52204   -7862.8709   -7052.3488   0.78028448 
   78300    45.092444   -268.11207    814.94002   -7881.0286   -7066.0886   0.78028448 
   78400    44.945503   -265.62598    812.28441   -7873.7145     -7061.43   0.78028448 
   78500    43.560282    -273.3318    787.24978   -7893.7223   -7106.4725   0.78028448 
   78600    43.944653   -226.98765    794.19638   -7869.2945   -7075.0982   0.78028448 
   78700     44.52125   -217.83981    804.61702   -7876.5977   -7071.9807   0.78028448 
   78800    44.602222   -280.47297    806.08041   -7884.9196   -7078.8392   0.78028448 
   78900     44.42305   -291.87212    802.84229   -7858.2731   -7055.4308   0.78028448 
   79000    45.796021   -249.37412    827.65552   -7872.8292   -7045.1737   0.78028448 
   79100    45.443403   -325.34067    821.28277   -7858.0101   -7036.7273   0.78028448 
   79200     44.70912   -269.88036    808.01233   -7865.2207   -7057.2084   0.78028448 
   79300    45.223781   -324.62577    817.31363   -7843.2054   -7025.8918   0.78028448 
   79400    44.944123   -255.59341    812.25947   -7873.0149   -7060.7554   0.78028448 
   79500    45.755959   -212.54332     826.9315   -7869.0706   -7042.1391   0.78028448 
   79600     46.68935    -252.9645    843.80034   -7859.1473    -7015.347   0.78028448 
   79700    44.843955   -246.45112    810.44916   -7862.9163   -7052.4671   0.78028448 
   79800    44.287533   -279.84131    800.39315    -7873.495   -7073.1019   0.78028448 
   79900     44.57303   -289.58673    805.55284   -7882.1438    -7076.591   0.78028448 
   80000    43.790549   -279.84878    791.41132   -7857.4022   -7065.9908   0.78028448 
   80100    44.994956   -252.21596    813.17815   -7859.3189   -7046.1408   0.78028448 
   80200    43.741596   -302.26011    790.52661   -7853.3991   -7062.8725   0.78028448 
   80300    44.352868    -256.4114    801.57392   -7870.7133   -7069.1394   0.78028448 
   80400    43.560367    -238.8663    787.25133   -7866.9978   -7079.7464   0.78028448 
   80500     45.30746   -269.97459    818.82593   -7850.8021   -7031.9761   0.78028448 
   80600    44.352459   -251.54172    801.56654   -7886.1652   -7084.5986   0.78028448 
   80700    45.329927   -250.41566    819.23197   -7859.3779   -7040.1459   0.78028448 
   80800    46.577611   -253.91468    841.78093   -7845.3512   -7003.5703   0.78028448 
   80900    45.554021   -269.19629    823.28194   -7856.9738   -7033.6919   0.78028448 
   81000    45.980608   -252.29485     830.9915   -7842.7299   -7011.7384   0.78028448 
   81100    45.979199   -234.36066    830.96603   -7851.8063   -7020.8402   0.78028448 
   81200    45.851966   -256.65756    828.66659   -7835.0353   -7006.3687   0.78028448 
   81300    46.233885    -309.9011    835.56888   -7835.0908   -6999.5219   0.78028448 
   81400    45.982495   -312.21418     831.0256    -7833.631   -7002.6054   0.78028448 
   81500    45.921703   -303.97099    829.92693   -7862.4414   -7032.5145   0.78028448 
   81600    46.085354   -263.03828    832.88453   -7861.9425    -7029.058   0.78028448 
   81700    45.447932   -250.19717    821.36464   -7848.3646   -7026.9999   0.78028448 
   81800    45.476118   -294.73498    821.87403    -7851.909    -7030.035   0.78028448 
   81900      46.0582   -272.09842    832.39379   -7843.5623   -7011.1685   0.78028448 
   82000    45.759361   -257.35011    826.99298   -7837.8469   -7010.8539   0.78028448 
   82100    46.164838   -311.71064    834.32103   -7850.0374   -7015.7164   0.78028448 
   82200    44.922545   -259.00253     811.8695   -7882.6562   -7070.7867   0.78028448 
   82300    45.959243   -296.30628    830.60538   -7859.9227   -7029.3173   0.78028448 
   82400    46.823182   -333.09812    846.21904   -7846.2895   -7000.0705   0.78028448 
   82500    46.163273   -269.29397    834.29274   -7833.9069   -6999.6141   0.78028448 
   82600    45.320615   -284.54049    819.06368    -7851.446   -7032.3824   0.78028448 
   82700    44.970237   -250.29691    812.73142   -7879.6484   -7066.9169   0.78028448 
   82800     46.14889   -300.47906     834.0328   -7862.2866   -7028.2538   0.78028448 
   82900    45.505336   -253.26155    822.40207   -7870.1487   -7047.7466   0.78028448 
   83000    45.678954    -265.5792    825.53981   -7844.0884   -7018.5486   0.78028448 
   83100    46.010053   -238.52794    831.52365   -7860.1572   -7028.6335   0.78028448 
   83200    46.215319   -323.21318    835.23335   -7853.0308   -7017.7974   0.78028448 
   83300    44.489515   -281.73613    804.04349   -7863.8533   -7059.8098   0.78028448 
   83400     45.34453   -272.93815    819.49588   -7854.4665   -7034.9706   0.78028448 
   83500    45.053224   -246.76004    814.23121   -7830.4362   -7016.2049   0.78028448 
   83600    46.358335    -258.8766    837.81802   -7851.9504   -7014.1324   0.78028448 
   83700    45.780738   -272.93615    827.37931    -7831.537   -7004.1577   0.78028448 
   83800    46.651588   -274.05234    843.11789    -7845.383   -7002.2651   0.78028448 
   83900    47.016183   -295.78919    849.70708   -7856.4781    -7006.771   0.78028448 
   84000    46.637042   -245.90372      842.855   -7822.0141   -6979.1591   0.78028448 
   84100    46.376067   -312.83832    838.13849   -7844.3898   -7006.2513   0.78028448 
   84200    46.740259   -283.39834    844.72041    -7842.356   -6997.6356   0.78028448 
   84300    47.106934   -279.35592     851.3472   -7826.0431   -6974.6959   0.78028448 
   84400    46.736563   -303.39775    844.65361   -7835.8831   -6991.2295   0.78028448 
   84500    46.645984   -287.46342    843.01661   -7829.6462   -6986.6296   0.78028448 
   84600    46.058881   -325.39504    832.40609   -7847.0463   -7014.6403   0.78028448 
   84700    46.669696   -267.18683    843.44514   -7858.1772    -7014.732   0.78028448 
   84800    45.267903   -278.65881    818.11103   -7833.0881    -7014.977   0.78028448 
   84900    46.516132   -273.68415    840.66984   -7855.3038    -7014.634   0.78028448 
   85000    46.054775   -259.55629    832.33189   -7843.8874   -7011.5555   0.78028448 
   85100    46.776565   -243.66625    845.37655   -7841.6275    -6996.251   0.78028448 
   85200    48.153573   -294.31232    870.26274     -7822.51   -6952.2473   0.78028448 
   85300    46.889946   -277.54849    847.42564   -7812.3428   -6964.9171   0.78028448 
   85400    47.788327   -269.88063    863.66178   -7827.5767   -6963.9149   0.78028448 
   85500    47.858068   -258.69925    864.92218   -7822.7239   -6957.8017   0.78028448 
   85600    45.498936   -231.31392     822.2864   -7850.3784    -7028.092   0.78028448 
   85700    46.908802   -272.31139    847.76642   -7847.1731   -6999.4067   0.78028448 
   85800    46.489948   -206.07144    840.19662   -7832.2019   -6992.0053   0.78028448 
   85900    45.997259    -217.6172    831.29243   -7836.1389   -7004.8465   0.78028448 
[...]
  179300    302.65583    -152.1157    5469.7933   -2966.4402    2503.3531   0.78028448 
  179400    300.56963   -97.059859    5432.0902   -2897.7727    2534.3175   0.78028448 
  179500    305.40146   -278.33048    5519.4142   -2979.9769    2539.4372   0.78028448 
  179600    302.99134   -31.197455    5475.8569   -2948.4837    2527.3732   0.78028448 
  179700    312.90317   -129.95247    5654.9898   -3014.7522    2640.2376   0.78028448 
  179800    307.88584   -48.753644    5564.3134   -2893.0013    2671.3121   0.78028448 
  179900     306.8865   -142.15668    5546.2527   -2909.3085    2636.9442   0.78028448 
  180000    303.47666   -87.652975    5484.6278   -2953.9762    2530.6516   0.78028448 
  180100    304.06036    -115.5781    5495.1768   -3006.1032    2489.0736   0.78028448 
  180200    298.62657   -82.826593    5396.9739   -2955.1869     2441.787   0.78028448 
  180300    301.24275   -77.856262    5444.2552   -2909.4338    2534.8214   0.78028448 
  180400    305.99546   -125.18642    5530.1493   -2934.7398    2595.4094   0.78028448 
  180500    302.54423   -205.78127    5467.7764   -2926.6622    2541.1142   0.78028448 
  180600    299.58571   -81.117253    5414.3081   -2922.9255    2491.3826   0.78028448 
  180700     306.3709   -85.031572    5536.9345   -3044.9544    2491.9801   0.78028448 
  180800    305.75173   -164.43009    5525.7445   -3044.6772    2481.0673   0.78028448 
  180900     307.9124   -60.078314    5564.7935   -3024.8402    2539.9533   0.78028448 
  181000    306.40253   -117.13904    5537.5061    -2994.711    2542.7951   0.78028448 
  181100    300.23157   -71.135131    5425.9805   -3031.2006    2394.7799   0.78028448 
  181200     301.1478   -17.179889    5442.5392   -2946.4745    2496.0647   0.78028448 
  181300    302.56609   -64.205759    5468.1715   -2969.9151    2498.2564   0.78028448 
  181400    303.90033   -23.208449    5492.2847   -3077.6907     2414.594   0.78028448 
  181500    310.65646   -51.223058    5614.3859   -2995.3518     2619.034   0.78028448 
  181600    307.14109    60.161882    5550.8538   -2963.6954    2587.1583   0.78028448 
  181700    300.83164   -68.391914    5436.8253   -3041.7756    2395.0496   0.78028448 
  181800    308.91736   -18.487864    5582.9557   -2903.3778    2679.5779   0.78028448 
  181900      306.524    -54.71256    5539.7014   -2901.2266    2638.4749   0.78028448 
  182000    303.92818   -207.28668    5492.7881   -2873.6938    2619.0942   0.78028448 
  182100    305.56308   -124.94336     5522.335     -2889.66    2632.6749   0.78028448 
  182200    308.47881   -105.58515      5575.03   -2889.0135    2686.0166   0.78028448 
  182300    301.56516   -147.54274     5450.082   -2887.1859    2562.8961   0.78028448 
  182400    309.98581    32.573571    5602.2655   -2889.1656    2713.0999   0.78028448 
  182500    309.87548   -82.296715    5600.2716   -2977.9588    2622.3127   0.78028448 
  182600    300.68378   -248.89203     5434.153   -2949.7931    2484.3599   0.78028448 
  182700    312.92279   -99.656091    5655.3445   -2977.5118    2677.8327   0.78028448 
  182800    306.88366   -101.81439    5546.2013   -2966.5946    2579.6067   0.78028448 
  182900    312.57252   -16.637042    5649.0142   -2973.7369    2675.2772   0.78028448 
  183000    306.05021   -101.22893    5531.1388   -2833.8136    2697.3252   0.78028448 
  183100    310.05398   -35.652505    5603.4974   -2963.6375    2639.8599   0.78028448 
  183200    300.20077    -71.92832    5425.4239     -3040.64    2384.7839   0.78028448 
  183300    312.04467   -87.186256    5639.4745   -2957.6081    2681.8665   0.78028448 
  183400    304.34095    -53.41973    5500.2479   -2963.4151    2536.8329   0.78028448 
  183500    303.03629   -62.182672    5476.6693   -2942.7846    2533.8847   0.78028448 
  183600    308.57123   -35.322626    5576.7002   -2939.7377    2636.9625   0.78028448 
  183700    305.80486    -60.97073    5526.7047   -2985.7731    2540.9316   0.78028448 
  183800    304.88393   -120.16713    5510.0609   -2877.1926    2632.8683   0.78028448 
  183900    304.29465   -66.720399    5499.4112   -2999.9752     2499.436   0.78028448 
  184000    308.82997   -122.80235    5581.3763   -3001.2864    2580.0899   0.78028448 
  184100     309.0561   -212.67296    5585.4632   -2922.8217    2662.6415   0.78028448 
  184200    307.18477   -49.466776    5551.6433   -3058.3513     2493.292   0.78028448 
  184300    306.46793   -91.269442    5538.6881   -2879.7262    2658.9619   0.78028448 
  184400    305.37884   -28.659226    5519.0053   -2910.6223     2608.383   0.78028448 
  184500    309.64624   -56.714267    5596.1285    -2890.085    2706.0436   0.78028448 
  184600    310.71348    -61.75838    5615.4164   -2794.5818    2820.8346   0.78028448 
  184700    307.79354    -49.35963    5562.6454   -2869.3819    2693.2635   0.78028448 
  184800    314.55345   -28.280269    5684.8149   -2876.4861    2808.3288   0.78028448 
  184900    312.82748   -56.757424    5653.6221   -2844.9558    2808.6663   0.78028448 
  185000    308.60347   -60.627995    5577.2829   -2956.0623    2621.2207   0.78028448 
  185100    307.29007    3.4521267    5553.5463   -2952.0076    2601.5387   0.78028448 
  185200    308.37214    51.253464    5573.1023   -2912.1979    2660.9043   0.78028448 
  185300    315.31252   -91.587313    5698.5331   -2894.9068    2803.6263   0.78028448 
  185400    310.97211    1.7755164    5620.0905   -2870.2186    2749.8719   0.78028448 
  185500    308.97819   -56.399944    5584.0551   -2926.1173    2657.9378   0.78028448 
  185600    308.53648   -88.690993    5576.0722   -2943.5311    2632.5411   0.78028448 
  185700      311.933    20.285929    5637.4563    -2920.406    2717.0503   0.78028448 
  185800    305.32267   -26.353728    5517.9901   -2798.8455    2719.1446   0.78028448 
  185900    311.06109   -124.30326    5621.6986   -2889.7824    2731.9162   0.78028448 
  186000    303.76449   -238.18569    5489.8297   -2893.7795    2596.0502   0.78028448 
  186100      309.368   -117.89195    5591.0999   -2903.3156    2687.7844   0.78028448 
  186200    304.37756   -58.911334    5500.9095   -2879.7934    2621.1161   0.78028448 
  186300    307.29131   -63.952655    5553.5687   -2859.6058    2693.9628   0.78028448 
  186400    308.50556   -174.07664    5575.5134   -2909.9297    2665.5837   0.78028448 
  186500    311.62994   -127.83816    5631.9793   -2749.0988    2882.8804   0.78028448 
  186600    306.49004   -114.67917    5539.0877   -2696.5359    2842.5518   0.78028448 
  186700    310.17531    24.257339    5605.6903   -2783.4801    2822.2102   0.78028448 
  186800    309.62862    34.611673    5595.8101   -2811.2812    2784.5289   0.78028448 
  186900    309.35948   -172.36828     5590.946   -2880.0504    2710.8956   0.78028448 
  187000    310.52271    -268.5818    5611.9686   -2866.5443    2745.4243   0.78028448 
  187100    311.66374   -257.66199    5632.5901   -2829.4927    2803.0974   0.78028448 
  187200     304.1445   -190.15969    5496.6975   -2776.1184    2720.5791   0.78028448 
  187300    302.42712   -190.61189    5465.6599   -2864.8849    2600.7749   0.78028448 
  187400    307.12855    6.5779602    5550.6272   -2799.8251    2750.8021   0.78028448 
  187500    310.73329   -55.790275    5615.7744   -2822.2626    2793.5118   0.78028448 
  187600    309.32998    15.078417    5590.4129   -2775.5061    2814.9069   0.78028448 
  187700    312.26668   -4.6777558    5643.4868   -2749.9441    2893.5427   0.78028448 
  187800    313.24332   -60.348584    5661.1373   -2753.4239    2907.7134   0.78028448 
  187900    305.53545   -132.69791    5521.8356   -2744.7397     2777.096   0.78028448 
  188000     307.1974   -51.347744    5551.8715    -2773.861    2778.0105   0.78028448 
  188100    311.49976    -139.2637    5629.6266   -2781.4806     2848.146   0.78028448 
  188200    317.63722   -88.006123    5740.5468   -2779.1482    2961.3986   0.78028448 
  188300    309.11994   -182.27687    5586.6169   -2762.3936    2824.2233   0.78028448 
  188400    314.97327   -19.316952     5692.402   -2830.1422    2862.2599   0.78028448 
  188500    304.54178   -23.604148    5503.8774   -2750.0606    2753.8168   0.78028448 
  188600    316.06619   -45.033401    5712.1541   -2842.3312     2869.823   0.78028448 
  188700    308.32851   -92.438901    5572.3136   -2915.0047    2657.3089   0.78028448 
  188800     307.8178   -52.400296    5563.0838   -2732.1011    2830.9827   0.78028448 
  188900    313.80506     29.72044    5671.2895   -2812.5078    2858.7817   0.78028448 
  189000    316.00289   -24.335662      5711.01   -2816.5127    2894.4972   0.78028448 
  189100    308.58476   -34.892153    5576.9448     -2809.82    2767.1248   0.78028448 
  189200    316.74238   -82.253606    5724.3747   -2792.7727     2931.602   0.78028448 
  189300    313.51503   -213.77088    5666.0478   -2825.5686    2840.4793   0.78028448 
  189400     312.3463   -95.608873    5644.9257   -2775.5828    2869.3429   0.78028448 
  189500    318.06514    25.625208    5748.2803   -2748.0176    3000.2628   0.78028448 
  189600    313.50729   -171.33731    5665.9079   -2674.7196    2991.1883   0.78028448 
  189700    318.94486   -182.56146    5764.1792   -2780.0198    2984.1594   0.78028448 
  189800    313.87976   -79.967161    5672.6395   -2775.7906     2896.849   0.78028448 
  189900    316.06357    117.43546    5712.1067   -2754.0654    2958.0413   0.78028448 
  190000    302.92187    70.572922    5474.6014   -2772.3614    2702.2401   0.78028448 
  190100    311.79385    50.357803    5634.9416   -2841.1866     2793.755   0.78028448 
  190200    312.97906      68.0071    5656.3614   -2837.7847    2818.5767   0.78028448 
  190300    309.23916      71.6915    5588.7716   -2838.1285    2750.6431   0.78028448 
  190400    311.11465  -0.38179307    5622.6666    -2782.823    2839.8436   0.78028448 
  190500    309.39979   -95.471917    5591.6745   -2760.2147    2831.4599   0.78028448 
  190600    317.21995   -45.988298    5733.0055   -2781.2038    2951.8017   0.78028448 
  190700    307.64211   -151.58248    5559.9085   -2655.5875     2904.321   0.78028448 
  190800     314.0184    -130.9846     5675.145   -2881.7819    2793.3631   0.78028448 
  190900    307.17059   -160.81315    5551.3871   -2874.0232    2677.3639   0.78028448 
  191000    311.72043    -126.2791    5633.6147   -2785.6655    2847.9492   0.78028448 
  191100    315.33962   -147.20443    5699.0229   -2800.4526    2898.5703   0.78028448 
  191200    310.35393   -89.667491    5608.9183   -2770.5805    2838.3378   0.78028448 
  191300    314.49422    21.156633    5683.7444   -2730.3572    2953.3872   0.78028448 
  191400    309.90498   -25.634922    5600.8047   -2672.9579    2927.8468   0.78028448 
  191500    315.02978    -118.8274    5693.4234   -2856.8353    2836.5882   0.78028448 
  191600    318.44529   -141.08692    5755.1508   -2826.7772    2928.3736   0.78028448 
  191700    316.01172   -64.767384    5711.1697   -2679.8523    3031.3173   0.78028448 
  191800    306.13035   -130.60569    5532.5871   -2701.0904    2831.4968   0.78028448 
  191900    313.82593   -93.614309    5671.6666   -2725.5127    2946.1539   0.78028448 
  192000    316.03401   -104.98841    5711.5724   -2920.9377    2790.6347   0.78028448 
  192100    312.23617   -201.46535    5642.9355   -2821.9654    2820.9701   0.78028448 
  192200    310.80443   -55.161935    5617.0601    -2816.178    2800.8821   0.78028448 
  192300    318.90706    74.223646     5763.496   -2717.3489    3046.1471   0.78028448 
  192400    314.25946   -112.41117    5679.5017   -2802.6178    2876.8839   0.78028448 
  192500    309.73479   -18.768929    5597.7288   -2742.7845    2854.9443   0.78028448 
  192600    314.87965   -54.921034    5690.7101   -2878.9872    2811.7229   0.78028448 
  192700    314.06573   -43.802208    5676.0004   -2822.0985    2853.9019   0.78028448 
  192800    319.25321    42.140432    5769.7519   -2774.6325    2995.1194   0.78028448 
  192900    314.02011   -137.01838     5675.176   -2695.9584    2979.2175   0.78028448 
  193000    312.14264   -16.448735    5641.2451   -2813.3259    2827.9192   0.78028448 
  193100    321.38584   -132.02385    5808.2943   -2937.3852    2870.9092   0.78028448 
  193200    309.62046   -186.39916    5595.6626   -2797.0366     2798.626   0.78028448 
  193300    317.10941   -180.26263    5731.0078     -2786.19    2944.8178   0.78028448 
  193400    315.41353   -45.849414    5700.3588   -2740.8537    2959.5051   0.78028448 
  193500    314.30875   -84.349927    5680.3925   -2794.1337    2886.2588   0.78028448 
  193600    311.80365   -156.10942    5635.1186   -2869.2777    2765.8409   0.78028448 
  193700    309.73442   -159.19169    5597.7222   -2648.1994    2949.5228   0.78028448 
  193800    314.42324   -180.49514    5682.4616   -2712.4469    2970.0147   0.78028448 
  193900    308.04097   -117.38189     5567.117   -2676.6504    2890.4666   0.78028448 
  194000     314.4597    105.50393    5683.1204   -2672.3756    3010.7448   0.78028448 
  194100    315.96283   -150.41113    5710.2862     -2729.58    2980.7061   0.78028448 
  194200    319.58819    7.4202021     5775.806   -2841.2581    2934.5478   0.78028448 
  194300     323.2998   -117.76891    5842.8845   -2872.1719    2970.7126   0.78028448 
  194400    316.48257   -219.28465    5719.6792   -2752.6042     2967.075   0.78028448 
  194500    312.88823   -10.576332      5654.72   -2658.1051    2996.6148   0.78028448 
  194600    314.88911   -147.85637    5690.8811   -2724.2191     2966.662   0.78028448 
  194700    315.31246   -69.449092    5698.5322   -2889.3649    2809.1672   0.78028448 
  194800    309.34007    -99.70032    5590.5953    -2743.867    2846.7282   0.78028448 
  194900    318.30971   -170.35624    5752.7005   -2894.4238    2858.2766   0.78028448 
  195000    318.73544   -11.664484    5760.3944   -2786.2166    2974.1778   0.78028448 
  195100    317.97738   -110.77415    5746.6942   -2639.0159    3107.6783   0.78028448 
  195200    318.32984   -92.513272    5753.0643   -2700.0688    3052.9954   0.78028448 
  195300    316.79597   -11.177508    5725.3432   -2583.9315    3141.4116   0.78028448 
  195400    314.11404    26.148714    5676.8736   -2755.1644    2921.7092   0.78028448 
  195500    320.66671    4.7364337    5795.2976   -2770.4284    3024.8692   0.78028448 
  195600    313.87254   -13.491632     5672.509   -2653.7084    3018.8006   0.78028448 
  195700    321.25868   -49.705109     5805.996   -2732.3345    3073.6615   0.78028448 
  195800     318.2539   -45.696785    5751.6918   -2805.0908    2946.6011   0.78028448 
  195900    316.70626   -222.75816    5723.7218   -2851.9775    2871.7443   0.78028448 
  196000    318.50718    -48.83365    5756.2692   -2734.7363    3021.5329   0.78028448 
  196100    313.05187   -3.9217137    5657.6774   -2718.5676    2939.1098   0.78028448 
  196200    320.51371   -45.750356    5792.5325   -2706.9492    3085.5833   0.78028448 
  196300    314.11402   -59.730092    5676.8731   -2736.4114    2940.4617   0.78028448 
  196400    318.38791    28.149019    5754.1137   -2703.5258    3050.5879   0.78028448 
  196500    315.64519    13.987641    5704.5455   -2766.7226    2937.8229   0.78028448 
  196600    312.59656   -148.82736    5649.4487   -2592.9149    3056.5337   0.78028448 
  196700    318.55497   -76.777806    5757.1329   -2693.5877    3063.5451   0.78028448 
  196800    313.04962   -122.62578    5657.6366   -2614.0227    3043.6139   0.78028448 
  196900    318.91405   -107.97186    5763.6224   -2723.8161    3039.8064   0.78028448 
  197000    315.08377   -12.797962    5694.3992   -2753.4562     2940.943   0.78028448 
  197100    322.73961   -3.0438768    5832.7605   -2772.5683    3060.1922   0.78028448 
  197200    318.95476   -21.381262    5764.3582   -2711.8955    3052.4627   0.78028448 
  197300    319.41298   -117.83944    5772.6394   -2688.5725     3084.067   0.78028448 
  197400    322.49245   -91.565507    5828.2936   -2783.0344    3045.2592   0.78028448 
  197500    316.96533   -73.370425    5728.4039   -2660.4136    3067.9903   0.78028448 
  197600    316.62942   -104.50924    5722.3332   -2621.6905    3100.6427   0.78028448 
  197700    317.84429   -24.855553    5744.2891   -2686.1233    3058.1657   0.78028448 
  197800    317.02459   -141.61627    5729.4748   -2706.0496    3023.4252   0.78028448 
  197900    320.81964   -117.29459    5798.0616   -2671.6014    3126.4602   0.78028448 
  198000    323.67171   -63.769115    5849.6059   -2755.8853    3093.7207   0.78028448 
  198100    317.25929    24.208814    5733.7166   -2677.7748    3055.9418   0.78028448 
  198200    313.47521   -100.45747    5665.3282   -2718.2245    2947.1038   0.78028448 
  198300    318.71524   -19.111033    5760.0293    -2764.878    2995.1514   0.78028448 
  198400     322.2767    9.1605445    5824.3945   -2688.0229    3136.3716   0.78028448 
  198500    314.10566   -64.919942    5676.7221   -2779.2103    2897.5118   0.78028448 
  198600    316.57249   -111.58148    5721.3043    -2643.962    3077.3422   0.78028448 
  198700    319.87489   -109.16103    5780.9874   -2681.2652    3099.7222   0.78028448 
  198800    318.67814    -52.11746     5759.359   -2560.5009    3198.8581   0.78028448 
  198900    318.18776   -82.279824    5750.4965   -2761.0353    2989.4613   0.78028448 
  199000    320.60563   -67.191689    5794.1937   -2626.8123    3167.3814   0.78028448 
  199100    327.36799   -28.477272    5916.4076   -2767.6114    3148.7962   0.78028448 
  199200    324.00166   -22.487522     5855.569   -2671.6731    3183.8959   0.78028448 
  199300    320.34202    27.209741    5789.4297   -2610.8123    3178.6174   0.78028448 
  199400     320.3593   -25.165705     5789.742   -2659.9323    3129.8097   0.78028448 
  199500    317.27735   -113.97637    5734.0429   -2647.3954    3086.6474   0.78028448 
  199600     322.2516   -17.312475    5823.9409    -2498.769    3325.1719   0.78028448 
  199700    321.37792    9.3917924    5808.1511   -2658.7211    3149.4301   0.78028448 
  199800    325.39056    110.46187    5880.6701   -2601.6389    3279.0313   0.78028448 
  199900    322.60806   -17.965559    5830.3831   -2665.1185    3165.2645   0.78028448 
  200000    316.28954   -109.36094    5716.1906   -2655.1498    3061.0408   0.78028448 
  200100    323.62718   -88.605262    5848.8013    -2755.295    3093.5062   0.78028448 
Loop time of 595.181 on 12 procs for 100000 steps with 6064 atoms

Performance: 14.517 ns/day, 1.653 hours/ns, 168.016 timesteps/s
99.3% CPU use with 12 MPI tasks x 1 OpenMP threads

MPI task timing breakdown:
Section |  min time  |  avg time  |  max time  |%varavg| %total
---------------------------------------------------------------
Pair    | 370.14     | 397.61     | 413.42     |  60.3 | 66.81
Bond    | 19.97      | 21.056     | 22.837     |  18.9 |  3.54
Kspace  | 139.77     | 153.2      | 176.44     |  86.0 | 25.74
Neigh   | 1.1952     | 1.1954     | 1.1957     |   0.0 |  0.20
Comm    | 11.301     | 14.5       | 19.763     |  59.5 |  2.44
Output  | 0.038889   | 0.047116   | 0.13621    |  12.4 |  0.01
Modify  | 4.3828     | 4.6023     | 4.7593     |   6.5 |  0.77
Other   |            | 2.969      |            |       |  0.50

Nlocal:    505.333 ave 523 max 484 min
Histogram: 3 0 0 0 3 1 1 0 0 4
Nghost:    4050.08 ave 4059 max 4029 min
Histogram: 1 0 1 0 1 0 1 1 3 4
Neighs:    367984 ave 390305 max 344025 min
Histogram: 2 0 0 1 3 1 2 1 1 1

Total # of neighbors = 4415809
Ave neighs/atom = 728.201
Ave special neighs/atom = 6.75462
Neighbor list builds = 135
Dangerous builds = 0
System init for write_restart ...
Ewald initialization ...
WARNING: Using 12-bit tables for long-range coulomb (../kspace.cpp:321)
  G vector (1/distance) = 0.123963
  estimated absolute RMS force accuracy = 0.0398863
  estimated relative force accuracy = 0.000120117
  KSpace vectors: actual max1d max3d = 432 6 1098
                  kxmax kymax kzmax  = 5 5 6
Total wall time: 0:19:39
