LAMMPS (31 Mar 2017)
  using 1 OpenMP thread(s) per MPI task
Reading data file ...
  orthogonal box = (0 0 0) to (81.6 70.667 100)
  4 by 3 by 1 MPI processor grid
  reading atoms ...
  6064 atoms
  scanning bonds ...
  1 = max bonds/atom
  scanning angles ...
  6 = max angles/atom
  scanning dihedrals ...
  9 = max dihedrals/atom
  reading bonds ...
  4608 bonds
  reading angles ...
  8192 angles
  reading dihedrals ...
  7680 dihedrals
Finding 1-2 1-3 1-4 neighbors ...
  special bond factors lj:   0          0          0.5       
  special bond factors coul: 0          0          0.5       
  4 = max # of 1-2 neighbors
  6 = max # of 1-3 neighbors
  12 = max # of 1-4 neighbors
  14 = max # of special neighbors
1200 atoms in group gold
256 atoms in group thiol
4864 atoms in group dynamic
Ewald initialization ...
WARNING: System is not charge neutral, net charge = -1.792e-05 (../kspace.cpp:302)
WARNING: Using 12-bit tables for long-range coulomb (../kspace.cpp:321)
  G vector (1/distance) = 0.123963
  estimated absolute RMS force accuracy = 0.0398863
  estimated relative force accuracy = 0.000120117
  KSpace vectors: actual max1d max3d = 432 6 1098
                  kxmax kymax kzmax  = 5 5 6
Neighbor list info ...
  update every 1 steps, delay 0 steps, check yes
  max neighbors/atom: 30000, page size: 300000
  master list distance cutoff = 22
  ghost atom cutoff = 22
  binsize = 11, bins = 8 7 10
  3 neighbor lists, perpetual/occasional/extra = 3 0 0
  (1) pair lj/cut/coul/long, perpetual, skip from (3)
      attributes: half, newton on
      pair build: skip
      stencil: none
      bin: none
  (2) pair morse, perpetual, skip from (3)
      attributes: half, newton on
      pair build: skip
      stencil: none
      bin: none
  (3) neighbor class addition, perpetual
      attributes: half, newton on
      pair build: half/bin/newton
      stencil: half/bin/3d/newton
      bin: standard
Setting up cg style minimization ...
  Unit style    : real
Per MPI rank memory allocation (min/avg/max) = 27.98 | 27.99 | 27.99 Mbytes
Step Temp Press KinEng PotEng TotEng Density 
       0            0   -1549.0389            0   -4491.0888   -4491.0888   0.78028448 
     100            0   -98.256674            0   -8381.2755   -8381.2755   0.78028448 
Loop time of 1.26206 on 12 procs for 100 steps with 6064 atoms

98.6% CPU use with 12 MPI tasks x 1 OpenMP threads

Minimization stats:
  Stopping criterion = max iterations
  Energy initial, next-to-last, final = 
        -4491.08882301     -8374.59818485     -8381.27554749
  Force two-norm initial, final = 634.545 82.0057
  Force max component initial, final = 29.6229 5.83276
  Final line search alpha, max atom move = 0.00585668 0.0341606
  Iterations, force evaluations = 100 198

MPI task timing breakdown:
Section |  min time  |  avg time  |  max time  |%varavg| %total
---------------------------------------------------------------
Pair    | 0.81164    | 0.86192    | 0.89917    |   3.0 | 68.30
Bond    | 0.039512   | 0.043766   | 0.048172   |   1.3 |  3.47
Kspace  | 0.27528    | 0.31474    | 0.36305    |   5.0 | 24.94
Neigh   | 0          | 0          | 0          |   0.0 |  0.00
Comm    | 0.021497   | 0.032702   | 0.044319   |   3.6 |  2.59
Output  | 3.0994e-05 | 4.8041e-05 | 0.00022602 |   0.0 |  0.00
Modify  | 0.00019431 | 0.00025584 | 0.00028968 |   0.0 |  0.02
Other   |            | 0.00862    |            |       |  0.68

Nlocal:    505.333 ave 525 max 487 min
Histogram: 1 1 2 3 1 0 0 1 0 3
Nghost:    4043.33 ave 4074 max 4003 min
Histogram: 1 0 1 2 1 0 2 2 1 2
Neighs:    356600 ave 370975 max 341997 min
Histogram: 2 0 2 1 1 1 1 2 0 2

Total # of neighbors = 4279205
Ave neighs/atom = 705.674
Ave special neighs/atom = 6.75462
Neighbor list builds = 0
Dangerous builds = 0
Ewald initialization ...
WARNING: Using 12-bit tables for long-range coulomb (../kspace.cpp:321)
  G vector (1/distance) = 0.123963
  estimated absolute RMS force accuracy = 0.0398863
  estimated relative force accuracy = 0.000120117
  KSpace vectors: actual max1d max3d = 432 6 1098
                  kxmax kymax kzmax  = 5 5 6
Setting up Verlet run ...
  Unit style    : real
  Current step  : 100
  Time step     : 1
Per MPI rank memory allocation (min/avg/max) = 26.87 | 26.88 | 26.88 Mbytes
Step Temp Press KinEng PotEng TotEng Density 
     100            0   -98.256674            0   -8381.2755   -8381.2755   0.78028448 
     200    1.9294184   -104.71236    34.869706    -8459.064   -8424.1943   0.78028448 
     300    2.2639298   -127.53981    40.915214   -8532.7547   -8491.8395   0.78028448 
     400    2.0128897   -142.88325    36.378253   -8587.3626   -8550.9844   0.78028448 
     500    1.7531119    -154.4424    31.683381   -8623.2028   -8591.5194   0.78028448 
     600    1.7107107   -160.20101    30.917078   -8650.6618   -8619.7447   0.78028448 
     700     1.807828   -164.87625    32.672246   -8671.1332   -8638.4609   0.78028448 
     800    1.9273215   -176.92705    34.831809   -8687.1102   -8652.2784   0.78028448 
     900    2.0905987   -180.17996    37.782662   -8699.9997   -8662.2171   0.78028448 
    1000    2.2659022    -187.2327     40.95086   -8711.3347   -8670.3839   0.78028448 
    1100    2.5963872   -201.77411    46.923601   -8723.9432   -8677.0196   0.78028448 
    1200    2.7969376   -219.93424    50.548078   -8734.8709   -8684.3228   0.78028448 
    1300    3.1035389   -207.87836    56.089176   -8747.3446   -8691.2554   0.78028448 
    1400    3.2156375   -212.75811    58.115095   -8756.3351     -8698.22   0.78028448 
    1500    3.4628982   -224.81856    62.583753   -8764.9083   -8702.3246   0.78028448 
    1600    3.6159797   -233.12469    65.350341    -8769.821   -8704.4706   0.78028448 
    1700    3.8215474   -214.98868    69.065494   -8774.7102   -8705.6447   0.78028448 
    1800    4.0743634   -235.17839    73.634549   -8773.4324   -8699.7978   0.78028448 
    1900     4.237002   -235.56528     76.57386   -8777.2153   -8700.6414   0.78028448 
    2000    4.4234448   -240.44781    79.943376   -8778.0991   -8698.1557   0.78028448 
    2100     4.709609   -244.10047    85.115121   -8777.5709   -8692.4558   0.78028448 
    2200    4.9797134   -244.74518    89.996624   -8776.5228   -8686.5262   0.78028448 
    2300    5.1483352   -243.52367    93.044067   -8779.1535   -8686.1094   0.78028448 
    2400    5.3895475   -260.44668    97.403412   -8776.1419   -8678.7384   0.78028448 
    2500    5.6869758   -253.39327    102.77873   -8776.4925   -8673.7138   0.78028448 
    2600    5.8037281   -255.73261    104.88875   -8775.4266   -8670.5378   0.78028448 
    2700    5.8895693   -252.29207    106.44013    -8774.891   -8668.4509   0.78028448 
    2800    6.2260214   -260.58514    112.52071   -8775.2972   -8662.7764   0.78028448 
    2900    6.4580558   -265.16288    116.71419   -8773.5837   -8656.8695   0.78028448 
    3000    6.6494706   -257.61346    120.17356   -8772.8357   -8652.6621   0.78028448 
    3100    6.9201613   -253.34006    125.06566   -8774.2649   -8649.1993   0.78028448 
    3200    7.0764767   -274.60144     127.8907   -8770.7933   -8642.9027   0.78028448 
    3300    7.3030695    -267.0362    131.98583    -8773.178   -8641.1921   0.78028448 
    3400    7.3101029   -281.82396    132.11294   -8770.0072   -8637.8942   0.78028448 
    3500    7.6047401   -270.51262    137.43782   -8769.6266   -8632.1888   0.78028448 
    3600    7.8711955   -284.28679    142.25337   -8768.0532   -8625.7998   0.78028448 
    3700     8.138204   -268.79298    147.07892    -8763.402   -8616.3231   0.78028448 
    3800    8.4180921   -277.22553    152.13724   -8760.6312   -8608.4939   0.78028448 
    3900    8.4148687   -305.11535    152.07899   -8762.2382   -8610.1592   0.78028448 
    4000     8.530587   -285.52064    154.17032   -8762.1597   -8607.9894   0.78028448 
    4100    8.9029089   -263.79099    160.89917   -8764.1775   -8603.2783   0.78028448 
    4200    9.0573227    -300.4851    163.68983   -8760.0587   -8596.3688   0.78028448 
    4300    9.1342449   -261.95833    165.08002   -8761.9839   -8596.9039   0.78028448 
    4400    9.3281515   -268.56309    168.58443   -8760.5059   -8591.9214   0.78028448 
    4500    9.3439244   -289.49842    168.86949   -8757.6113   -8588.7418   0.78028448 
    4600    9.6353084   -271.98925    174.13557   -8755.3042   -8581.1687   0.78028448 
    4700    9.8168421    -266.2865    177.41636   -8757.1168   -8579.7005   0.78028448 
    4800    9.9193431   -265.47663    179.26883    -8758.457   -8579.1882   0.78028448 
    4900    9.9363396   -271.43347      179.576   -8758.2089   -8578.6329   0.78028448 
    5000    10.221534   -287.44732    184.73023   -8754.7945   -8570.0643   0.78028448 
    5100    10.076628   -277.37325    182.11139   -8752.6362   -8570.5248   0.78028448 
    5200    10.517399   -272.37072    190.07729   -8752.9774   -8562.9001   0.78028448 
    5300    10.381141   -288.30104    187.61475   -8749.4517   -8561.8369   0.78028448 
    5400     10.79903   -271.40025     195.1671   -8754.6066   -8559.4395   0.78028448 
    5500     10.84681   -311.57914    196.03062   -8748.4422   -8552.4116   0.78028448 
    5600    10.938975   -285.96061    197.69628   -8751.3483    -8553.652   0.78028448 
    5700    10.857349   -288.18909    196.22109   -8748.3314   -8552.1103   0.78028448 
    5800    11.369671    -265.2395     205.4801   -8753.0711    -8547.591   0.78028448 
    5900    11.467081   -269.90742    207.24056   -8753.9059   -8546.6653   0.78028448 
    6000    11.598372   -282.78495    209.61334   -8748.5206   -8538.9073   0.78028448 
    6100    11.759276   -269.94607    212.52129   -8749.5328   -8537.0116   0.78028448 
    6200    11.808807   -272.26229    213.41646   -8748.7361   -8535.3197   0.78028448 
    6300    11.828652   -282.37845     213.7751   -8744.3093   -8530.5342   0.78028448 
    6400     11.85478   -307.63219    214.24731   -8744.2676   -8530.0203   0.78028448 
    6500    11.896447   -293.67181    215.00033   -8749.7592   -8534.7588   0.78028448 
    6600    12.013882   -284.67582    217.12269   -8742.0797    -8524.957   0.78028448 
    6700    12.062835    -292.1888    218.00741   -8737.7522   -8519.7448   0.78028448 
    6800    12.230244   -268.77575    221.03293   -8744.1208   -8523.0879   0.78028448 
    6900    12.490816   -266.91981    225.74217    -8740.797   -8515.0548   0.78028448 
    7000    12.527267   -299.98043    226.40093   -8740.0813   -8513.6803   0.78028448 
    7100    12.455716   -273.89815    225.10782    -8738.367   -8513.2592   0.78028448 
    7200     12.71622   -292.65447    229.81581   -8739.2398    -8509.424   0.78028448 
    7300    13.029649   -265.77129     235.4803   -8739.5599   -8504.0796   0.78028448 
    7400    13.136658   -299.42077    237.41423   -8738.3097   -8500.8954   0.78028448 
    7500    13.152726   -280.22753    237.70462   -8734.8559   -8497.1513   0.78028448 
    7600     13.26821   -284.39924    239.79174   -8728.5992   -8488.8075   0.78028448 
    7700    13.197148   -262.91421    238.50745   -8729.9209   -8491.4135   0.78028448 
    7800    13.299819   -277.33831    240.36299   -8731.6683   -8491.3054   0.78028448 
    7900    13.392614   -272.78818    242.04005   -8731.9171    -8489.877   0.78028448 
    8000    13.413077   -287.87335    242.40987   -8725.9837   -8483.5739   0.78028448 
    8100    13.816387   -279.37229    249.69874   -8729.9468   -8480.2481   0.78028448 
    8200    13.776736   -287.45372    248.98215   -8730.6262    -8481.644   0.78028448 
    8300    14.013773   -284.35126    253.26603   -8728.6769   -8475.4109   0.78028448 
    8400    13.816385    -305.2492     249.6987   -8719.5878   -8469.8891   0.78028448 
    8500    13.900193   -278.67926    251.21333   -8726.0079   -8474.7946   0.78028448 
    8600    14.056123   -277.80676    254.03141   -8725.7393   -8471.7079   0.78028448 
    8700     13.95395    -267.3539    252.18487   -8719.1819    -8466.997   0.78028448 
    8800    14.586673    -262.9193    263.61986   -8723.5819   -8459.9621   0.78028448 
    8900    14.774549   -272.45219    267.01527   -8724.2609   -8457.2456   0.78028448 
    9000    14.577737   -295.58495    263.45835   -8720.6899   -8457.2315   0.78028448 
    9100    14.420807   -281.17426    260.62222   -8715.3363   -8454.7141   0.78028448 
    9200    14.675263   -268.69215     265.2209   -8714.1509     -8448.93   0.78028448 
    9300    14.963095   -315.08344     270.4228   -8715.4699   -8445.0471   0.78028448 
    9400     14.65749   -311.16535    264.89971   -8718.6763   -8453.7766   0.78028448 
    9500    14.706957     -304.058    265.79371   -8710.2555   -8444.4618   0.78028448 
    9600    14.891396   -280.37468    269.12701   -8712.2941   -8443.1671   0.78028448 
    9700    14.927229   -295.87339    269.77461   -8715.1116    -8445.337   0.78028448 
    9800    14.943976   -266.45029    270.07726   -8714.2255   -8444.1482   0.78028448 
    9900    15.522891   -293.42453     280.5398   -8716.7634   -8436.2236   0.78028448 
   10000    15.518625   -301.14837     280.4627   -8707.8819   -8427.4192   0.78028448 
   10100    15.321075   -251.11071    276.89244   -8708.6185   -8431.7261   0.78028448 
   10200    15.808952   -284.86175    285.70968   -8710.7798   -8425.0701   0.78028448 
   10300    15.459046   -289.48194    279.38595   -8705.4737   -8426.0877   0.78028448 
   10400    15.724798    -300.2082    284.18879   -8701.1298    -8416.941   0.78028448 
   10500    15.874463    -278.3007    286.89364   -8703.2297    -8416.336   0.78028448 
   10600     15.62415   -289.68157    282.36982   -8704.1003   -8421.7305   0.78028448 
   10700    15.908562   -268.35183    287.50989   -8710.7222   -8423.2123   0.78028448 
   10800    16.118328   -270.23366    291.30092   -8706.0652   -8414.7643   0.78028448 
   10900    16.236446   -305.93574    293.43562   -8705.6399   -8412.2043   0.78028448 
   11000    16.065223   -278.76497    290.34118   -8697.7827   -8407.4415   0.78028448 
   11100    16.283834   -280.86966    294.29205   -8697.7222   -8403.4302   0.78028448 
   11200    16.338318   -269.82411    295.27673   -8705.2979   -8410.0212   0.78028448 
   11300     16.39015   -260.16991    296.21346   -8699.2488   -8403.0353   0.78028448 
   11400    16.366261    -264.8664    295.78172   -8699.9957    -8404.214   0.78028448 
   11500    16.832366   -311.20328    304.20549   -8700.9937   -8396.7883   0.78028448 
   11600    16.680108   -288.59462    301.45378   -8702.0943   -8400.6405   0.78028448 
   11700    16.670467   -272.46475    301.27954   -8697.5623   -8396.2827   0.78028448 
   11800    16.963639   -299.72189    306.57794   -8696.1288   -8389.5508   0.78028448 
   11900    16.508487    -315.9283    298.35213   -8692.4272    -8394.075   0.78028448 
   12000     17.07207   -256.78071    308.53757    -8693.352   -8384.8145   0.78028448 
   12100    16.936862   -288.15482    306.09401   -8696.6204   -8390.5264   0.78028448 
   12200    17.140435   -282.42989    309.77311   -8692.9669   -8383.1938   0.78028448 
   12300    16.821831   -298.96726    304.01509   -8695.7319   -8391.7168   0.78028448 
   12400    16.870824   -315.69521    304.90053   -8693.6991   -8388.7986   0.78028448 
   12500    17.109837   -288.74596    309.22011   -8690.1759   -8380.9558   0.78028448 
   12600    17.266155   -291.50475     312.0452   -8691.0297   -8378.9845   0.78028448 
   12700    17.553698   -337.44645    317.24186   -8684.3745   -8367.1327   0.78028448 
   12800    17.439875   -275.58851    315.18477   -8686.3015   -8371.1167   0.78028448 
   12900    17.695242   -315.70719    319.79994   -8684.8038   -8365.0039   0.78028448 
   13000    17.754285   -262.07365    320.86701   -8685.8458   -8364.9788   0.78028448 
   13100    17.867761   -255.72523    322.91781   -8686.8795   -8363.9617   0.78028448 
   13200    17.566276   -255.45455    317.46918   -8686.4385   -8368.9693   0.78028448 
   13300    17.582228   -279.11382    317.75747   -8687.1559   -8369.3984   0.78028448 
   13400    17.734744   -255.28846    320.51385   -8685.1368    -8364.623   0.78028448 
   13500    17.827267   -281.11975    322.18599   -8684.6406   -8362.4547   0.78028448 
   13600    18.085643   -297.24195    326.85553   -8682.5977   -8355.7421   0.78028448 
   13700    18.215104    -272.0465    329.19523   -8677.5583   -8348.3631   0.78028448 
   13800    18.500292   -332.10088    334.34933   -8684.8281   -8350.4788   0.78028448 
   13900    17.898868    -291.8505    323.47999   -8679.0847   -8355.6047   0.78028448 
   14000    18.098667   -288.47775    327.09089   -8684.1026   -8357.0117   0.78028448 
   14100    18.109356   -258.42187    327.28407   -8688.1144   -8360.8303   0.78028448 
   14200    18.353003   -257.56583    331.68743   -8683.8192   -8352.1318   0.78028448 
   14300    18.555483   -263.53499    335.34677   -8680.1379   -8344.7911   0.78028448 
   14400     18.74841   -259.77643    338.83348   -8674.0628   -8335.2293   0.78028448 
   14500    18.948904   -279.75505    342.45693     -8681.62    -8339.163   0.78028448 
   14600    18.859657   -285.25904    340.84401    -8675.689   -8334.8449   0.78028448 
   14700    18.806584   -234.99034    339.88483   -8668.3912   -8328.5063   0.78028448 
   14800    18.692457   -260.43744    337.82225   -8672.7935   -8334.9713   0.78028448 
   14900    18.621601   -259.36882     336.5417    -8674.475   -8337.9333   0.78028448 
   15000    18.873456   -242.74981    341.09339   -8664.1084    -8323.015   0.78028448 
   15100    18.794167   -268.11616    339.66043   -8664.1755    -8324.515   0.78028448 
   15200     18.95748   -299.00439    342.61193   -8671.3269    -8328.715   0.78028448 
   15300    19.037148   -261.69719    344.05174   -8662.7565   -8318.7048   0.78028448 
   15400    18.910119   -290.18742    341.75598   -8667.6414   -8325.8854   0.78028448 
   15500    19.535657   -282.31255    353.06112   -8664.7543   -8311.6932   0.78028448 
   15600    19.164315   -272.00981    346.34999   -8681.7196   -8335.3696   0.78028448 
   15700    19.371308   -306.64283    350.09089   -8672.0788    -8321.988   0.78028448 
   15800    19.260276   -282.92357    348.08426   -8669.4294   -8321.3451   0.78028448 
   15900     19.47819   -269.75872    352.02254   -8667.9574   -8315.9348   0.78028448 
   16000    19.829242   -257.78003    358.36697    -8670.726    -8312.359   0.78028448 
   16100    19.199508   -292.11677    346.98602   -8670.1213   -8323.1353   0.78028448 
   16200    19.354534   -327.94492    349.78775     -8676.86   -8327.0722   0.78028448 
   16300    19.739288   -264.41299    356.74127   -8669.2283    -8312.487   0.78028448 
   16400    19.335903   -276.42035    349.45103   -8664.8265   -8315.3755   0.78028448 
   16500    20.078463   -261.98988    362.87107   -8669.9201   -8307.0491   0.78028448 
   16600    19.704246   -293.85449    356.10796   -8661.4514   -8305.3435   0.78028448 
   16700     19.98828   -306.76607    361.24122   -8653.5683   -8292.3271   0.78028448 
   16800    20.407961   -272.77428    368.82596   -8654.6314   -8285.8054   0.78028448 
   16900    20.256658   -254.82623    366.09151    -8662.958   -8296.8665   0.78028448 
   17000     19.91765   -271.31488    359.96475   -8649.4815   -8289.5168   0.78028448 
   17100    20.026855   -273.62574    361.93837   -8660.0406   -8298.1023   0.78028448 
   17200    20.173253   -265.78034    364.58416   -8657.8819   -8293.2977   0.78028448 
   17300    20.098709   -294.12718    363.23696   -8659.2703   -8296.0333   0.78028448 
   17400    20.361203   -267.46455    367.98091   -8647.6191   -8279.6382   0.78028448 
   17500    20.617784    -292.3354    372.61803   -8644.4525   -8271.8344   0.78028448 
   17600    20.415375   -282.84717    368.95996   -8647.9901   -8279.0301   0.78028448 
   17700    20.580003   -249.97938    371.93521   -8649.1429   -8277.2076   0.78028448 
   17800    20.832878    -251.5666    376.50533   -8644.6737   -8268.1683   0.78028448 
   17900    20.665545   -245.97065     373.4812   -8646.9431   -8273.4619   0.78028448 
   18000    20.812015   -256.14065    376.12829   -8644.6181   -8268.4898   0.78028448 
   18100    20.740672   -278.76112    374.83893   -8644.5137   -8269.6748   0.78028448 
   18200    21.241862   -308.62969    383.89676   -8646.6067   -8262.7099   0.78028448 
   18300     21.13472   -250.54878    381.96042   -8645.6788   -8263.7183   0.78028448 
   18400    20.829474   -244.77402    376.44382   -8652.9928    -8276.549   0.78028448 
   18500    21.218233   -267.06024    383.46972   -8647.2456   -8263.7759   0.78028448 
   18600    21.585559   -249.53326    390.10828   -8648.6951   -8258.5869   0.78028448 
   18700     21.03052   -252.15544    380.07725   -8639.3859   -8259.3086   0.78028448 
   18800    20.844251   -234.48984    376.71089   -8651.6264   -8274.9155   0.78028448 
   18900    21.307499   -243.61902      385.083   -8644.9398   -8259.8568   0.78028448 
   19000    21.366264   -308.12579    386.14505   -8639.8375   -8253.6925   0.78028448 
   19100    21.137727   -267.70244    382.01477   -8640.0691   -8258.0543   0.78028448 
   19200    21.227995   -272.63791    383.64614   -8640.1219   -8256.4757   0.78028448 
   19300     21.22378   -284.03373    383.56998   -8634.3735   -8250.8035   0.78028448 
   19400    21.291089   -275.06823    384.78643   -8628.1369   -8243.3505   0.78028448 
   19500     21.97031   -268.51679    397.06175   -8626.2591   -8229.1973   0.78028448 
   19600    21.435036   -248.95978    387.38793   -8629.3183   -8241.9304   0.78028448 
   19700    21.505296   -252.09947    388.65772   -8631.7208   -8243.0631   0.78028448 
   19800    21.737888   -279.05814    392.86128   -8631.9026   -8239.0413   0.78028448 
   19900     21.77434   -309.97622    393.52005   -8638.3113   -8244.7913   0.78028448 
   20000    21.538305   -235.56598    389.25427   -8618.5449   -8229.2906   0.78028448 
   20100    21.667923   -253.92038    391.59681   -8632.8924   -8241.2956   0.78028448 
   20200    21.916886   -263.32189    396.09624   -8636.8256   -8240.7294   0.78028448 
   20300    22.114932   -272.26527    399.67546   -8629.5056   -8229.8302   0.78028448 
   20400    22.238142   -289.95117    401.90218   -8624.8861   -8222.9839   0.78028448 
   20500    21.848912   -247.22772    394.86777   -8626.3582   -8231.4905   0.78028448 
   20600    22.157835   -274.29432    400.45083   -8618.3837   -8217.9329   0.78028448 
   20700    22.073358   -276.35102    398.92411   -8616.3651    -8217.441   0.78028448 
   20800    22.044423   -271.89279    398.40117   -8622.4516   -8224.0505   0.78028448 
   20900    22.335844   -222.00143    403.66793   -8618.0433   -8214.3754   0.78028448 
   21000    22.453579   -232.54011    405.79571   -8627.9843   -8222.1886   0.78028448 
   21100     22.42897   -247.47356    405.35095   -8611.6926   -8206.3416   0.78028448 
   21200    22.333379   -274.70236    403.62338   -8620.2601   -8216.6367   0.78028448 
   21300    22.594867   -247.76585    408.34915   -8614.1554   -8205.8062   0.78028448 
   21400    22.935714   -267.37451    414.50917   -8616.2285   -8201.7194   0.78028448 
   21500    22.346542   -280.44484    403.86125    -8617.199   -8213.3377   0.78028448 
   21600    22.783071   -250.37561     411.7505   -8619.8974   -8208.1469   0.78028448 
   21700    22.564169   -262.40484    407.79435   -8616.6378   -8208.8435   0.78028448 
   21800    22.818911   -253.82257    412.39822   -8627.7879   -8215.3897   0.78028448 
   21900    22.700139   -251.70234    410.25169   -8616.4519   -8206.2002   0.78028448 
   22000    22.577778   -247.81425    408.04031   -8621.3957   -8213.3554   0.78028448 
   22100     22.73259   -254.59401    410.83817    -8614.187   -8203.3489   0.78028448 
   22200    22.589563   -266.69972    408.25329   -8620.2435   -8211.9903   0.78028448 
   22300    22.793588   -249.21178    411.94056   -8607.4869   -8195.5464   0.78028448 
   22400    23.247705   -266.05513    420.14767   -8605.7101   -8185.5624   0.78028448 
   22500    23.370029   -262.13603    422.35838   -8615.0863   -8192.7279   0.78028448 
   22600    22.981515   -251.02189     415.3369   -8608.1779    -8192.841   0.78028448 
   22700    23.275073   -202.02689    420.64228   -8607.9793    -8187.337   0.78028448 
   22800    22.931897   -285.11702    414.44018   -8601.0704   -8186.6302   0.78028448 
   22900     23.35185   -249.62467    422.02984   -8605.1597   -8183.1299   0.78028448 
   23000    23.750745   -252.70523    429.23893   -8607.1283   -8177.8893   0.78028448 
   23100    23.281675   -234.89699     420.7616   -8601.1862   -8180.4246   0.78028448 
   23200    23.236361   -253.07871    419.94265   -8607.5616   -8187.6189   0.78028448 
   23300    23.997542   -243.30181    433.69922   -8614.6003   -8180.9011   0.78028448 
   23400    23.542348   -239.27453    425.47264   -8610.4999   -8185.0273   0.78028448 
   23500    23.792833   -265.73308    429.99957   -8614.7069   -8184.7073   0.78028448 
   23600    23.448721    -246.3532    423.78056   -8609.2677   -8185.4871   0.78028448 
   23700    23.314239   -262.31487    421.35012   -8601.8035   -8180.4533   0.78028448 
   23800    23.727817   -241.78419    428.82456   -8604.2311   -8175.4066   0.78028448 
   23900    23.907333   -212.54707    432.06889   -8601.4517   -8169.3828   0.78028448 
   24000    23.850286   -248.16575    431.03791   -8609.9221   -8178.8842   0.78028448 
   24100    24.153879   -185.90918    436.52464   -8604.4219   -8167.8973   0.78028448 
   24200    24.181986   -246.86531    437.03261   -8599.4991   -8162.4665   0.78028448 
   24300    23.825642   -251.39973    430.59253   -8610.1114   -8179.5188   0.78028448 
   24400     23.92931   -218.88846    432.46608   -8597.9479   -8165.4818   0.78028448 
   24500     23.84828   -255.65888    431.00165    -8595.312   -8164.3103   0.78028448 
   24600    24.212906   -233.66885    437.59141   -8602.8356   -8165.2442   0.78028448 
   24700    24.376847    -227.2848    440.55425   -8598.9096   -8158.3554   0.78028448 
   24800    24.118608   -248.88121    435.88719   -8603.0495   -8167.1623   0.78028448 
   24900    24.594927   -260.80905    444.49554   -8601.0645    -8156.569   0.78028448 
   25000    24.577492   -223.93877    444.18045   -8608.7485   -8164.5681   0.78028448 
   25100    24.507148   -237.48447    442.90914   -8585.6463   -8142.7371   0.78028448 
   25200    24.885747   -216.22759    449.75143   -8592.7229   -8142.9714   0.78028448 
   25300    24.311323   -225.48398    439.37007   -8593.3556   -8153.9855   0.78028448 
   25400    24.607361   -212.41619    444.72025    -8597.912   -8153.1918   0.78028448 
   25500    24.595122   -241.11521    444.49907   -8595.5773   -8151.0782   0.78028448 
   25600    24.314393   -282.45196    439.42555   -8598.3972   -8158.9716   0.78028448 
   25700    24.602943   -221.06654    444.64041   -8588.5794   -8143.9389   0.78028448 
   25800    24.754099    -248.2735    447.37219   -8589.6165   -8142.2443   0.78028448 
   25900     24.50534   -245.93798    442.87646   -8580.9116   -8138.0351   0.78028448 
   26000    24.371438   -231.41114    440.45651   -8593.8197   -8153.3632   0.78028448 
   26100     24.64391   -224.31412    445.38079   -8604.1628    -8158.782   0.78028448 
   26200     24.52821   -255.32857    443.28979   -8589.9599   -8146.6701   0.78028448 
   26300    24.973456   -227.57466    451.33656   -8585.1688   -8133.8323   0.78028448 
   26400    25.023304   -226.62228    452.23745   -8589.2441   -8137.0067   0.78028448 
   26500    24.915479    -240.7759    450.28876   -8602.3546   -8152.0658   0.78028448 
   26600    24.855305   -282.14261    449.20127   -8595.7614   -8146.5601   0.78028448 
   26700    25.120144   -252.14662    453.98761   -8588.4323   -8134.4447   0.78028448 
   26800    24.849868   -213.73943    449.10301    -8564.261    -8115.158   0.78028448 
   26900    24.939109   -245.52168    450.71583   -8580.4778    -8129.762   0.78028448 
   27000       25.147   -192.71806    454.47297   -8581.9359   -8127.4629   0.78028448 
   27100    25.615154   -216.51456    462.93376   -8574.3887   -8111.4549   0.78028448 
   27200    25.714913   -222.48295    464.73666   -8575.4418   -8110.7051   0.78028448 
   27300    25.335785   -232.60493     457.8848   -8599.2402   -8141.3554   0.78028448 
   27400    25.335417   -229.74095    457.87815   -8591.3379   -8133.4598   0.78028448 
   27500    25.135569    -259.4331    454.26637   -8569.9641   -8115.6977   0.78028448 
   27600    25.603743   -231.57034    462.72753   -8569.3051   -8106.5776   0.78028448 
   27700    26.119044   -228.86377    472.04038   -8570.4072   -8098.3669   0.78028448 
   27800     25.71622   -211.01197    464.76028   -8570.3847   -8105.6245   0.78028448 
   27900    25.626201   -244.48449    463.13339   -8580.1519   -8117.0185   0.78028448 
   28000    25.666149   -280.03582    463.85537   -8581.8964   -8118.0411   0.78028448 
   28100    25.711266   -233.25026    464.67074    -8571.288   -8106.6173   0.78028448 
   28200    25.955687   -230.16761    469.08808   -8581.0838   -8111.9958   0.78028448 
   28300    25.846052   -222.67173    467.10669   -8577.4828   -8110.3762   0.78028448 
   28400     26.61088   -259.60698    480.92915   -8568.9981   -8088.0689   0.78028448 
   28500    26.232911   -239.89775    474.09825   -8576.2734   -8102.1752   0.78028448 
   28600    26.321382   -257.19017    475.69715   -8577.0725   -8101.3754   0.78028448 
   28700    26.250692   -281.24875     474.4196   -8594.5475   -8120.1279   0.78028448 
   28800    25.754912   -221.03332    465.45955   -8574.8754   -8109.4158   0.78028448 
   28900    26.295229    -234.5477    475.22451   -8569.3337   -8094.1092   0.78028448 
   29000    26.420246    -230.5149    477.48389   -8575.4182   -8097.9343   0.78028448 
   29100    26.209209   -217.92266    473.66989   -8575.9629    -8102.293   0.78028448 
   29200    26.214273   -239.62857    473.76141   -8579.1522   -8105.3908   0.78028448 
   29300    26.801769   -233.94036    484.37902   -8570.1233   -8085.7443   0.78028448 
   29400    26.394361   -243.12041    477.01608   -8569.7169   -8092.7008   0.78028448 
   29500    26.068685   -213.93624    471.13025   -8580.0969   -8108.9666   0.78028448 
   29600    26.374122   -244.50123     476.6503   -8567.6364   -8090.9861   0.78028448 
   29700    26.368437    -246.2986    476.54756   -8573.2922   -8096.7447   0.78028448 
   29800    25.799878   -249.17867     466.2722   -8560.8881   -8094.6159   0.78028448 
   29900    26.601762   -222.24169    480.76437   -8563.9374    -8083.173   0.78028448 
   30000    26.160772   -267.12426    472.79451   -8572.2237   -8099.4291   0.78028448 
   30100    27.108743   -243.99063    489.92686   -8573.5096   -8083.5828   0.78028448 
   30200      26.2691   -250.00789    474.75229   -8572.2885   -8097.5362   0.78028448 
   30300    26.882082   -234.23009    485.83049   -8575.9649   -8090.1344   0.78028448 
   30400    26.709378   -248.57068    482.70928   -8574.0788   -8091.3695   0.78028448 
   30500    26.956329   -236.68294    487.17234    -8567.246   -8080.0737   0.78028448 
   30600    27.409473   -202.13105    495.36185   -8579.3882   -8084.0263   0.78028448 
   30700     26.73996   -234.87902    483.26198   -8573.7803   -8090.5183   0.78028448 
   30800    26.914175   -204.33922     486.4105   -8562.0837   -8075.6732   0.78028448 
   30900     27.23165   -273.87573    492.14812   -8562.7271    -8070.579   0.78028448 
   31000    27.275746   -224.50329    492.94505   -8552.2704   -8059.3253   0.78028448 
   31100    27.477084   -254.78163    496.58376   -8564.1907    -8067.607   0.78028448 
   31200    26.829079   -240.73413    484.87259   -8563.7362   -8078.8637   0.78028448 
   31300    27.675236   -196.94241    500.16489   -8574.6918   -8074.5269   0.78028448 
   31400    27.306844   -231.49207    493.50708   -8557.1857   -8063.6786   0.78028448 
   31500    27.442207   -225.53354    495.95343   -8569.5787   -8073.6253   0.78028448 
   31600    27.049344   -194.99465    488.85336   -8571.9908   -8083.1374   0.78028448 
   31700    27.871531   -233.71494    503.71245   -8565.1928   -8061.4804   0.78028448 
   31800    27.985654   -228.20088    505.77496   -8570.5321   -8064.7571   0.78028448 
   31900     27.58076   -231.26901    498.45747   -8540.9942   -8042.5367   0.78028448 
   32000     27.14195    -261.6337      490.527   -8559.9033   -8069.3763   0.78028448 
   32100    26.961894   -228.79803    487.27292   -8558.9996   -8071.7266   0.78028448 
   32200    27.616808   -238.95292    499.10894   -8552.2536   -8053.1446   0.78028448 
   32300    28.062221   -220.98549    507.15873   -8573.9164   -8066.7576   0.78028448 
   32400    28.069233   -206.88302    507.28546   -8563.7093   -8056.4238   0.78028448 
   32500    27.783745   -207.37723    502.12594   -8566.4105   -8064.2846   0.78028448 
   32600    27.580709   -243.56094    498.45654   -8556.0056   -8057.5491   0.78028448 
   32700    28.107898   -228.42418    507.98423   -8561.1446   -8053.1604   0.78028448 
   32800    28.017507   -248.41824    506.35064   -8568.4757   -8062.1251   0.78028448 
   32900    28.178811   -214.63217    509.26583   -8551.5945   -8042.3286   0.78028448 
   33000    28.441368   -210.21997    514.01093    -8560.603   -8046.5921   0.78028448 
   33100    28.655782   -252.55324    517.88595   -8551.4036   -8033.5176   0.78028448 
   33200    28.426837   -205.25403    513.74832   -8569.5233    -8055.775   0.78028448 
   33300    28.219413    -201.7187    509.99962   -8566.2288   -8056.2291   0.78028448 
   33400    28.335036   -247.39961    512.08922   -8556.7152    -8044.626   0.78028448 
   33500    27.686128   -186.70595    500.36174   -8557.2985   -8056.9368   0.78028448 
   33600    27.928634   -194.58242    504.74447   -8559.0741   -8054.3296   0.78028448 
   33700    28.572739   -223.52705    516.38514   -8569.7288   -8053.3437   0.78028448 
   33800    28.181752   -198.50991    509.31898    -8546.353    -8037.034   0.78028448 
   33900    28.460778   -244.25959    514.36172   -8546.6298   -8032.2681   0.78028448 
   34000    28.329983   -205.20897     511.9979   -8547.7678   -8035.7699   0.78028448 
   34100    28.608864   -260.45761    517.03802   -8545.2011   -8028.1631   0.78028448 
   34200    28.856237    -233.3916    521.50871    -8551.081   -8029.5723   0.78028448 
   34300    29.087062    -199.7502    525.68033   -8552.0942   -8026.4139   0.78028448 
   34400    28.530275   -210.85065    515.61772   -8542.6743   -8027.0566   0.78028448 
   34500    28.775636   -246.27861    520.05204   -8551.0188   -8030.9668   0.78028448 
   34600     28.55504   -223.99213    516.06529    -8547.523   -8031.4578   0.78028448 
   34700     29.09514   -209.51606    525.82632   -8546.7676   -8020.9413   0.78028448 
   34800    28.870196   -231.74305    521.76099   -8557.5649   -8035.8039   0.78028448 
   34900    28.491816   -278.79964    514.92265   -8529.2867   -8014.3641   0.78028448 
   35000    29.349919    -151.3718    530.43085   -8544.4683   -8014.0374   0.78028448 
   35100    28.557432   -244.20481    516.10852   -8527.3511   -8011.2426   0.78028448 
   35200    29.039477   -216.99297    524.82034   -8541.7659   -8016.9455   0.78028448 
   35300    28.690315   -263.04054    518.51006   -8542.9677   -8024.4577   0.78028448 
   35400     28.62672   -234.84956    517.36074     -8553.54   -8036.1793   0.78028448 
   35500    29.300648   -211.63185    529.54039   -8556.0536   -8026.5132   0.78028448 
   35600    28.931054   -211.47965    522.86085   -8545.5859    -8022.725   0.78028448 
   35700    28.774706   -240.85722    520.03523   -8536.3716   -8016.3363   0.78028448 
   35800    29.189309   -230.08191    527.52821   -8551.8498   -8024.3216   0.78028448 
   35900    29.301482   -231.94898    529.55546   -8540.8537   -8011.2982   0.78028448 
   36000     29.21115   -222.97511    527.92293    -8539.189   -8011.2661   0.78028448 
   36100    29.665354   -238.90357     536.1316   -8553.6441   -8017.5125   0.78028448 
   36200     29.24058   -223.84541    528.45482   -8525.2504   -7996.7956   0.78028448 
   36300    29.266447   -230.80324     528.9223   -8538.7547   -8009.8324   0.78028448 
   36400    29.455493   -196.17415    532.33886   -8535.5614   -8003.2226   0.78028448 
   36500    29.560808   -192.01248    534.24217   -8527.5414   -7993.2992   0.78028448 
   36600    30.120163   -218.75766     544.3512   -8540.2946   -7995.9434   0.78028448 
   36700     29.66657   -200.56956    536.15357   -8536.9524   -8000.7988   0.78028448 
   36800    30.157673   -200.92598    545.02911   -8538.4919   -7993.4628   0.78028448 
   36900    30.092705   -237.46674    543.85497   -8520.1085   -7976.2536   0.78028448 
   37000    29.772955   -181.08154    538.07623   -8516.6605   -7978.5843   0.78028448 
   37100    30.467381   -211.79689    550.62636   -8538.2622   -7987.6358   0.78028448 
   37200    30.057054   -188.96593    543.21066   -8527.9577    -7984.747   0.78028448 
   37300    29.004399   -227.46989    524.18638   -8541.8009   -8017.6145   0.78028448 
   37400    30.411097   -222.33672    549.60916   -8541.6443   -7992.0352   0.78028448 
   37500    29.559374   -237.77111    534.21626   -8536.4377   -8002.2215   0.78028448 
   37600    29.767906    -206.3676    537.98499   -8522.5837   -7984.5987   0.78028448 
   37700    30.143619   -203.61131    544.77512   -8517.2829   -7972.5078   0.78028448 
   37800    30.317118    -149.0461     547.9107   -8517.9203   -7970.0096   0.78028448 
   37900    29.956818   -240.35055    541.39913   -8529.1221    -7987.723   0.78028448 
   38000    30.257644   -211.49133    546.83584   -8511.7827   -7964.9469   0.78028448 
   38100    30.288454   -150.26955    547.39268   -8516.8876   -7969.4949   0.78028448 
   38200    31.028684   -210.31558    560.77059   -8523.4395   -7962.6689   0.78028448 
   38300    30.594276   -217.34823    552.91969   -8529.1607    -7976.241   0.78028448 
   38400     30.29489    -191.5473    547.50898   -8530.3495   -7982.8405   0.78028448 
   38500    29.848196   -216.44539    539.43604   -8521.4669   -7982.0308   0.78028448 
   38600    30.512434   -220.60213    551.44058   -8535.9355   -7984.4949   0.78028448 
   38700    29.932049   -194.93404    540.95148   -8519.1917   -7978.2402   0.78028448 
   38800       30.542   -226.72522    551.97491   -8522.3359    -7970.361   0.78028448 
   38900    30.582499   -194.19753    552.70684   -8512.8824   -7960.1755   0.78028448 
   39000    29.918197   -222.31133    540.70114   -8509.8941    -7969.193   0.78028448 
   39100    30.566464   -180.34646    552.41704    -8515.659    -7963.242   0.78028448 
   39200    30.678717   -194.43752    554.44576   -8515.2745   -7960.8287   0.78028448 
   39300    30.666566   -226.68975    554.22615   -8511.9235   -7957.6973   0.78028448 
   39400    30.300552   -187.36362    547.61132   -8513.8568   -7966.2455   0.78028448 
   39500    29.857023    -187.5022    539.59556   -8519.8702   -7980.2747   0.78028448 
   39600    30.414816    -222.0262    549.67637   -8517.6529   -7967.9765   0.78028448 
   39700    30.658058   -217.15285    554.07239   -8511.6757   -7957.6033   0.78028448 
   39800    31.077978   -194.48214    561.66146   -8519.8467   -7958.1853   0.78028448 
   39900     30.99912   -169.02998    560.23628    -8498.563   -7938.3267   0.78028448 
   40000    30.172018   -192.98782    545.28837   -8513.1848   -7967.8964   0.78028448 
   40100    31.214242    -183.1091    564.12411   -8514.4577   -7950.3336   0.78028448 
   40200    31.501184   -210.48915    569.30991   -8497.7631   -7928.4532   0.78028448 
   40300    31.254435   -210.41828     564.8505   -8517.5931   -7952.7426   0.78028448 
   40400    31.293298   -185.71514    565.55286   -8505.1753   -7939.6224   0.78028448 
   40500    31.094829   -217.26986    561.96599   -8511.7408   -7949.7748   0.78028448 
   40600    31.081916   -178.49683    561.73262   -8511.1282   -7949.3955   0.78028448 
   40700    30.881853    -191.9532    558.11697   -8503.4727   -7945.3557   0.78028448 
   40800    31.702494   -168.95422    572.94812   -8511.7111    -7938.763   0.78028448 
   40900    30.808505   -168.05513    556.79137     -8508.43   -7951.6386   0.78028448 
   41000    31.249154   -150.47445    564.75506   -8495.5426   -7930.7875   0.78028448 
   41100    31.452048   -174.85129     568.4219   -8499.7914   -7931.3695   0.78028448 
   41200    31.560013   -181.14433    570.37311   -8509.4994   -7939.1263   0.78028448 
   41300    31.081339   -130.37002    561.72221   -8511.4185   -7949.6963   0.78028448 
   41400     31.13351    -195.6244    562.66507   -8510.3185   -7947.6534   0.78028448 
   41500    31.042208   -204.17873      561.015   -8508.7778   -7947.7628   0.78028448 
   41600    32.160238   -188.28735    581.22078   -8511.2198   -7929.9991   0.78028448 
   41700    31.925683     -192.396    576.98173   -8498.2588   -7921.2771   0.78028448 
   41800     31.60282    -200.8006    571.14674   -8500.8438    -7929.697   0.78028448 
   41900    31.534558    -192.4337    569.91307   -8512.9822   -7943.0691   0.78028448 
   42000    32.191217   -180.49864    581.78064   -8484.5507     -7902.77   0.78028448 
   42100    31.912413   -210.64589    576.74191   -8503.7205   -7926.9785   0.78028448 
   42200    32.140504   -191.88187    580.86412   -8498.5927   -7917.7285   0.78028448 
   42300    31.854474   -196.57975     575.6948   -8494.3467   -7918.6519   0.78028448 
   42400    31.401902   -170.48905    567.51563   -8500.9315   -7933.4159   0.78028448 
   42500    31.701724    -140.9542     572.9342   -8503.1618   -7930.2276   0.78028448 
   42600    31.499127   -189.49052    569.27274   -8506.4569   -7937.1842   0.78028448 
   42700    32.458241   -158.05461    586.60647   -8489.0671   -7902.4606   0.78028448 
   42800    31.372991   -193.99705    566.99313   -8494.5428   -7927.5497   0.78028448 
   42900     31.95025   -193.89424    577.42574    -8495.845   -7918.4192   0.78028448 
   43000    32.232725   -214.20714    582.53081   -8493.9573   -7911.4265   0.78028448 
   43100    32.035303   -218.31964    578.96287   -8489.5213   -7910.5584   0.78028448 
   43200    31.624501   -147.79701    571.53859   -8499.9416    -7928.403   0.78028448 
   43300    32.730724   -193.44144    591.53097   -8494.8098   -7903.2788   0.78028448 
   43400    33.017514   -194.34774    596.71401   -8493.7343   -7897.0203   0.78028448 
   43500    31.819787   -193.72518    575.06792   -8493.4202   -7918.3523   0.78028448 
   43600    32.408572   -211.29682    585.70883   -8492.3037   -7906.5949   0.78028448 
   43700    32.021574   -146.94363    578.71473   -8492.0644   -7913.3497   0.78028448 
   43800     32.14237   -166.02221    580.89785   -8491.2056   -7910.3078   0.78028448 
   43900    33.034192   -155.15271    597.01543   -8487.6199   -7890.6045   0.78028448 
   44000    33.175052   -120.18992    599.56115   -8508.1357   -7908.5746   0.78028448 
   44100    32.372148   -202.80345    585.05054   -8488.2489   -7903.1983   0.78028448 
   44200    31.687783   -135.62006    572.68226   -8489.2388   -7916.5565   0.78028448 
   44300    32.680629   -218.92602    590.62562    -8486.346   -7895.7204   0.78028448 
   44400    32.742856   -172.21367    591.75023   -8499.3759   -7907.6257   0.78028448 
   44500    32.275961   -166.16095    583.31218   -8488.3599   -7905.0477   0.78028448 
   44600      32.7015   -170.68468     591.0028   -8477.8004   -7886.7976   0.78028448 
   44700     32.34185   -185.95764    584.50299   -8480.4057   -7895.9027   0.78028448 
   44800     32.92028   -174.77376    594.95674   -8470.0919   -7875.1352   0.78028448 
   44900    32.697862   -184.08004    590.93706   -8470.8076   -7879.8705   0.78028448 
   45000    33.309691    -171.0911    601.99443   -8468.9876   -7866.9932   0.78028448 
   45100    32.704087   -198.63334    591.04955   -8500.4151   -7909.3656   0.78028448 
   45200    33.095287   -168.07768    598.11959   -8491.8819   -7893.7623   0.78028448 
   45300    32.843505   -152.95596    593.56921   -8466.2739   -7872.7047   0.78028448 
   45400    33.512669   -194.67988    605.66278   -8471.8437    -7866.181   0.78028448 
   45500    33.348273   -131.72926    602.69171   -8474.2447    -7871.553   0.78028448 
   45600     32.09416   -140.41184    580.02657   -8482.8567   -7902.8302   0.78028448 
   45700    33.057014   -148.70716    597.42789   -8472.9035   -7875.4756   0.78028448 
   45800    32.544503   -197.66196    588.16545   -8473.1647   -7884.9992   0.78028448 
   45900    33.728819   -136.77268    609.56919   -8466.4808   -7856.9116   0.78028448 
   46000    33.008177   -205.51395    596.54527   -8473.1107   -7876.5654   0.78028448 
   46100    33.519709   -219.85287    605.79001   -8479.4068   -7873.6168   0.78028448 
   46200    33.036717    -141.2641    597.06106   -8464.2044   -7867.1433   0.78028448 
   46300    33.699074    -206.9562    609.03162   -8469.7063   -7860.6747   0.78028448 
   46400    32.919245    -200.6768    594.93804   -8450.2738   -7855.3357   0.78028448 
   46500    33.666282   -192.46965    608.43898   -8479.4492   -7871.0102   0.78028448 
   46600     33.33664   -182.02939    602.48147   -8467.3345    -7864.853   0.78028448 
   46700    33.130553   -168.15433    598.75693   -8472.9658   -7874.2088   0.78028448 
   46800    32.951278   -154.38569    595.51695    -8476.122    -7880.605   0.78028448 
   46900    33.089001    -173.7538    598.00599   -8472.0494   -7874.0435   0.78028448 
   47000    34.426841   -142.23352     622.1843   -8472.7192   -7850.5349   0.78028448 
   47100    33.576552    -168.8632    606.81731   -8463.1979   -7856.3805   0.78028448 
   47200    33.246466   -142.38613    600.85179   -8463.2171   -7862.3653   0.78028448 
   47300    33.159129     -201.142    599.27337   -8466.0252   -7866.7519   0.78028448 
   47400    33.858495   -167.65994    611.91278   -8464.4156   -7852.5028   0.78028448 
   47500     32.93638   -153.38348    595.24772   -8465.2619   -7870.0141   0.78028448 
   47600    33.145302   -148.20067    599.02348   -8456.3352   -7857.3118   0.78028448 
   47700    33.407381   -179.63407    603.75995   -8457.7321   -7853.9721   0.78028448 
   47800    33.628929   -165.83705    607.76391   -8475.3158   -7867.5519   0.78028448 
   47900     33.30338   -147.52528    601.88037   -8462.0356   -7860.1552   0.78028448 
   48000    34.142866   -214.46589    617.05211   -8465.7765   -7848.7243   0.78028448 
   48100    34.591238   -158.65122    625.15538   -8458.6179   -7833.4625   0.78028448 
   48200    34.236332   -187.26855    618.74129   -8442.3823    -7823.641   0.78028448 
   48300    33.909976   -190.76255    612.84317   -8447.2245   -7834.3813   0.78028448 
   48400    34.004691   -157.45363    614.55492    -8450.575     -7836.02   0.78028448 
   48500    34.816894    -173.6264    629.23359   -8447.0074   -7817.7738   0.78028448 
   48600    34.146093   -145.07225    617.11043   -8455.3856   -7838.2751   0.78028448 
   48700    34.112036   -196.80765    616.49493   -8463.1381   -7846.6432   0.78028448 
   48800    35.026025   -141.46465    633.01313   -8468.2325   -7835.2194   0.78028448 
   48900    34.778077   -168.16234    628.53206   -8452.2013   -7823.6692   0.78028448 
   49000    34.193368   -159.10813    617.96482   -8451.8329    -7833.868   0.78028448 
   49100    34.414277    -156.7531    621.95723   -8452.3123    -7830.355   0.78028448 
   49200    34.288219   -207.67859    619.67903   -8457.3615   -7837.6825   0.78028448 
   49300    35.222748   -194.04592    636.56844    -8446.648   -7810.0796   0.78028448 
   49400     35.00527   -175.70482    632.63804    -8456.453    -7823.815   0.78028448 
   49500    34.829625   -134.64474    629.46367   -8458.7443   -7829.2807   0.78028448 
   49600    34.620166   -156.29929    625.67819   -8444.2283   -7818.5501   0.78028448 
   49700    34.422484   -139.70143    622.10554   -8452.2618   -7830.1563   0.78028448 
   49800    34.714072   -162.20481    627.37533    -8461.124   -7833.7487   0.78028448 
   49900    35.536593   -180.66207    642.24045   -8458.0262   -7815.7857   0.78028448 
   50000    35.122254   -191.81564    634.75225   -8453.3866   -7818.6343   0.78028448 
   50100    34.805677   -154.32484    629.03087   -8452.3336   -7823.3027   0.78028448 
   50200    34.446966   -106.73596    622.54801    -8442.098   -7819.5499   0.78028448 
   50300    34.364989   -108.18338    621.06647   -8438.6923   -7817.6258   0.78028448 
   50400    34.738537   -145.55485    627.81746   -8459.2299   -7831.4124   0.78028448 
   50500    35.210522   -190.40853    636.34749   -8443.5089   -7807.1615   0.78028448 
   50600    34.880142   -215.37784    630.37664   -8427.0056   -7796.6289   0.78028448 
   50700    35.633819   -152.18766    643.99758   -8412.4902   -7768.4926   0.78028448 
   50800    35.618488   -139.91447    643.72051    -8446.291   -7802.5705   0.78028448 
   50900    34.417683   -202.84901    622.01878   -8426.1127   -7804.0939   0.78028448 
   51000    35.371872   -134.46054    639.26351   -8469.2298   -7829.9663   0.78028448 
   51100     35.42543   -107.59459    640.23145   -8445.1509   -7804.9194   0.78028448 
   51200    34.190874   -166.72793    617.91974   -8438.0732   -7820.1534   0.78028448 
   51300    35.053697   -178.61072    633.51325   -8449.6432   -7816.1299   0.78028448 
   51400    34.998658   -115.80327    632.51854   -8432.9994   -7800.4809   0.78028448 
   51500    35.141773   -150.68433    635.10502   -8444.9243   -7809.8193   0.78028448 
   51600    35.262491   -164.23402    637.28671    -8434.507   -7797.2202   0.78028448 
   51700    35.742225   -136.65168    645.95676    -8429.316   -7783.3592   0.78028448 
   51800    35.401556   -173.18093    639.79999   -8426.6236   -7786.8236   0.78028448 
   51900    35.666811   -95.474181    644.59384   -8440.0381   -7795.4443   0.78028448 
   52000    35.664011   -218.32143    644.54324   -8449.6465   -7805.1033   0.78028448 
   52100    35.229598   -146.47896    636.69224   -8432.9735   -7796.2813   0.78028448 
   52200    34.781487   -153.78473    628.59368   -8450.6358   -7822.0421   0.78028448 
   52300    35.372963   -207.25582    639.28322   -8447.5199   -7808.2367   0.78028448 
   52400    35.747205    -149.8014    646.04677   -8421.9667   -7775.9199   0.78028448 
   52500    35.634747   -74.982447    644.01436   -8442.7338   -7798.7195   0.78028448 
   52600    35.894948   -168.87228    648.71688     -8441.85   -7793.1332   0.78028448 
   52700    35.376094   -136.07833    639.33982   -8429.2621   -7789.9223   0.78028448 
   52800    34.980493   -163.46928    632.19025   -8432.4087   -7800.2184   0.78028448 
   52900    36.680094   -178.11829    662.90654   -8438.8497   -7775.9432   0.78028448 
   53000    35.860128   -163.61145    648.08759    -8427.633   -7779.5454   0.78028448 
   53100    35.681437   -127.74298    644.85818   -8436.4663   -7791.6081   0.78028448 
   53200    35.660033   -161.41114    644.47134   -8437.0684   -7792.5971   0.78028448 
   53300    35.631504   -204.60085    643.95575   -8427.6808   -7783.7251   0.78028448 
   53400    36.165493   -203.69797    653.60635   -8436.0649   -7782.4586   0.78028448 
   53500    35.751568     -131.391    646.12562   -8433.7353   -7787.6097   0.78028448 
   53600    36.131944   -205.94539    653.00002   -8418.6693   -7765.6693   0.78028448 
   53700    35.860121   -135.62769    648.08746   -8425.9194   -7777.8319   0.78028448 
   53800    35.708106   -189.10654    645.34014   -8416.2055   -7770.8653   0.78028448 
   53900    36.608573   -207.57067    661.61398   -8415.8838   -7754.2698   0.78028448 
   54000    37.104388    -147.4854    670.57467   -8432.7317    -7762.157   0.78028448 
   54100    36.729132   -153.71357    663.79279   -8440.0171   -7776.2243   0.78028448 
   54200    36.503477   -223.98427    659.71461   -8415.0721   -7755.3575   0.78028448 
   54300    36.394367   -170.82947    657.74271   -8433.9316   -7776.1888   0.78028448 
   54400    35.839588   -117.66209    647.71639   -8426.0574    -7778.341   0.78028448 
   54500    37.710333   -173.57602     681.5257   -8433.7105   -7752.1848   0.78028448 
   54600    36.305592   -147.28871    656.13831   -8444.7776   -7788.6393   0.78028448 
   54700     36.10324    -141.8681    652.48127   -8432.7455   -7780.2642   0.78028448 
   54800    36.455109   -198.72814    658.84047   -8442.9551   -7784.1146   0.78028448 
   54900    37.349452   -168.24656    675.00363   -8436.2223   -7761.2187   0.78028448 
   55000    36.559815   -133.05531    660.73278   -8446.2818    -7785.549   0.78028448 
   55100    36.772404   -198.86748    664.57484   -8435.4426   -7770.8678   0.78028448 
   55200    36.835613   -201.26465    665.71719   -8446.9755   -7781.2583   0.78028448 
   55300    36.355053   -160.13169    657.03219   -8428.7304   -7771.6982   0.78028448 
   55400    36.406489    -159.7981    657.96178   -8432.8387   -7774.8769   0.78028448 
   55500    35.706634   -172.20222    645.31355   -8443.3433   -7798.0298   0.78028448 
   55600    36.507372   -116.88101    659.78501   -8416.7804   -7756.9954   0.78028448 
   55700     35.85845   -146.28446    648.05727   -8418.9772     -7770.92   0.78028448 
   55800    37.054275   -180.60847    669.66899   -8432.0736   -7762.4046   0.78028448 
   55900    36.488149   -88.411585    659.43759   -8411.0558   -7751.6182   0.78028448 
   56000    37.196642   -125.62115    672.24193   -8419.2256   -7746.9836   0.78028448 
   56100    36.549364   -145.10017     660.5439   -8411.6602   -7751.1163   0.78028448 
   56200    37.089515   -125.44409    670.30588   -8411.7159     -7741.41   0.78028448 
   56300    36.612844   -117.47597    661.69117   -8415.8514   -7754.1603   0.78028448 
   56400    36.467105   -109.14174    659.05727   -8418.5998   -7759.5425   0.78028448 
   56500    37.249332   -162.17052    673.19419   -8424.2828   -7751.0886   0.78028448 
   56600    36.944108   -141.44253    667.67797   -8410.0845   -7742.4065   0.78028448 
   56700    36.197941   -145.99436    654.19278   -8400.3197   -7746.1269   0.78028448 
   56800    37.609262   -175.91039    679.69909   -8410.0913   -7730.3922   0.78028448 
   56900    37.115983   -159.94432    670.78422   -8433.3876   -7762.6034   0.78028448 
   57000    37.204447   -137.68551    672.38299   -8418.7937   -7746.4107   0.78028448 
   57100    36.824907   -155.44163     665.5237   -8409.4696   -7743.9459   0.78028448 
   57200    36.712582   -165.29791    663.49369   -8412.2763   -7748.7827   0.78028448 
   57300    36.714265   -125.17064     663.5241   -8420.5127   -7756.9886   0.78028448 
   57400     37.02507   -159.80495    669.14118   -8404.0431    -7734.902   0.78028448 
   57500    37.609691   -128.46711    679.70683   -8431.8825   -7752.1757   0.78028448 
   57600    37.001692   -131.11582    668.71868    -8423.599   -7754.8804   0.78028448 
   57700    36.795247   -184.56167    664.98766   -8415.2898   -7750.3022   0.78028448 
   57800    37.625816   -107.60312    679.99826   -8411.8489   -7731.8506   0.78028448 
   57900    38.132678   -174.41706     689.1586   -8421.1607   -7732.0021   0.78028448 
   58000    36.918258   -173.08057    667.21081   -8402.1084   -7734.8976   0.78028448 
   58100    37.705879   -183.38412     681.4452   -8412.3639   -7730.9187   0.78028448 
   58200    37.503153   -144.30271    677.78141   -8394.4958   -7716.7144   0.78028448 
   58300    37.598682     -171.413    679.50786   -8420.0115   -7740.5037   0.78028448 
   58400    37.545736   -199.05767      678.551   -8384.6985   -7706.1475   0.78028448 
   58500    38.180607   -166.10189     690.0248   -8395.1847   -7705.1599   0.78028448 
   58600    37.947805   -163.94051    685.81745   -8392.6325   -7706.8151   0.78028448 
   58700    37.180498    -120.2126    671.95018   -8408.0485   -7736.0983   0.78028448 
   58800    37.998128   -147.63271    686.72692   -8411.1618   -7724.4349   0.78028448 
   58900    37.853781   -149.01324    684.11818   -8414.0991    -7729.981   0.78028448 
   59000     37.79322    -90.10648    683.02369   -8420.3109   -7737.2873   0.78028448 
   59100    37.732262   -115.80116    681.92202   -8400.4519   -7718.5299   0.78028448 
   59200    39.243978   -146.13993    709.24274   -8408.4871   -7699.2443   0.78028448 
   59300    38.202836   -125.55808    690.42653   -8394.3081   -7703.8816   0.78028448 
   59400     37.60141   -225.94055    679.55718   -8421.1044   -7741.5472   0.78028448 
   59500    36.981254   -121.11873     668.3493   -8390.6411   -7722.2918   0.78028448 
   59600    37.661084    -153.7662    680.63565   -8381.1809   -7700.5453   0.78028448 
   59700    38.523957   -133.44632    696.23004   -8395.2243   -7698.9943   0.78028448 
   59800    38.031797    -135.4425    687.33541   -8392.7885    -7705.453   0.78028448 
   59900    38.308491   -115.77563      692.336   -8411.7043   -7719.3683   0.78028448 
   60000    37.864155   -170.40245    684.30567   -8403.2518   -7718.9461   0.78028448 
   60100    38.804695   -153.99035    701.30372   -8392.9619   -7691.6582   0.78028448 
   60200    38.494707   -161.65623    695.70141   -8382.9834   -7687.2819   0.78028448 
   60300    37.436267   -172.33939     676.5726   -8398.7672   -7722.1946   0.78028448 
   60400    38.069127    -184.7153    688.01006   -8399.4854   -7711.4754   0.78028448 
   60500    37.790133   -105.54722     682.9679   -8407.4953   -7724.5274   0.78028448 
   60600     38.73779   -121.44227    700.09458    -8396.521   -7696.4264   0.78028448 
   60700     38.62837   -159.57494    698.11706   -8387.3878   -7689.2707   0.78028448 
   60800    38.618719   -142.30869    697.94264   -8391.6082   -7693.6655   0.78028448 
   60900    37.303098   -166.83136    674.16588   -8388.4964   -7714.3305   0.78028448 
   61000    38.046012   -120.17786    687.59231   -8398.7929   -7711.2005   0.78028448 
   61100    38.662136   -151.41972    698.72731    -8380.426   -7681.6987   0.78028448 
   61200     37.25873   -170.97757    673.36403   -8383.3351   -7709.9711   0.78028448 
   61300    38.396731   -170.16696    693.93074   -8384.6007     -7690.67   0.78028448 
   61400    39.260987   -52.748937    709.55013   -8383.7085   -7674.1583   0.78028448 
   61500    38.692258   -176.85862     699.2717   -8390.6967    -7691.425   0.78028448 
   61600     38.68481   -94.598551    699.13709   -8409.9191    -7710.782   0.78028448 
   61700    38.292562   -143.26941    692.04812   -8390.1375   -7698.0894   0.78028448 
   61800    39.197014    -158.7957    708.39396   -8369.3738   -7660.9798   0.78028448 
   61900     39.71679   -121.51084     717.7877   -8382.9986   -7665.2109   0.78028448 
   62000    38.998244   -129.55147    704.80166   -8377.2783   -7672.4767   0.78028448 
   62100    39.551396   -151.06908    714.79859   -8389.6392   -7674.8406   0.78028448 
   62200    39.001199   -145.82444    704.85508   -8368.1838   -7663.3287   0.78028448 
   62300    39.113262   -146.79278    706.88034   -8376.9297   -7670.0494   0.78028448 
   62400     39.27316   -136.23629    709.77012   -8378.1568   -7668.3867   0.78028448 
   62500    39.272911    -108.4298    709.76564   -8400.6222   -7690.8565   0.78028448 
   62600    38.406932   -171.06472    694.11509   -8395.6207   -7701.5056   0.78028448 
   62700    39.126112   -96.402487    707.11259   -8369.4616    -7662.349   0.78028448 
   62800    38.764102    -176.3821     700.5701   -8375.0793   -7674.5092   0.78028448 
   62900    40.298597   -163.30213    728.30248   -8362.8853   -7634.5828   0.78028448 
   63000    39.453466    -132.6508    713.02873   -8366.0215   -7652.9927   0.78028448 
   63100    39.804065   -174.68138    719.36499   -8376.3435   -7656.9786   0.78028448 
   63200    40.490185   -110.93879    731.76499   -8375.3656   -7643.6006   0.78028448 
   63300    39.370973   -164.82286    711.53787   -8359.5141   -7647.9762   0.78028448 
   63400    39.313478   -135.60568    710.49878   -8363.2908    -7652.792   0.78028448 
   63500    39.791596   -204.38315    719.13964   -8363.9093   -7644.7697   0.78028448 
   63600    39.516781   -146.58714    714.17301   -8374.7845   -7660.6115   0.78028448 
   63700    39.707504    -124.0012    717.61987   -8382.0524   -7664.4325   0.78028448 
   63800    39.104097   -115.68788    706.71472   -8362.6513   -7655.9365   0.78028448 
   63900    40.232288   -152.91368    727.10411   -8359.3213   -7632.2172   0.78028448 
   64000    37.995689   -132.59198    686.68284   -8348.0993   -7661.4164   0.78028448 
   64100    39.174754   -170.86197    707.99167   -8388.8919   -7680.9002   0.78028448 
   64200    39.529362   -195.71969    714.40038   -8381.1339   -7666.7335   0.78028448 
   64300    39.531932   -208.24349    714.44682   -8375.6414   -7661.1946   0.78028448 
   64400      40.1286   -148.54583     725.2302   -8373.5742    -7648.344   0.78028448 
   64500    41.025201   -88.577641    741.43416    -8355.615   -7614.1808   0.78028448 
   64600    39.576954   -154.92105    715.26049   -8350.8033   -7635.5428   0.78028448 
   64700    39.726222   -148.09325    717.95815   -8369.6553   -7651.6971   0.78028448 
   64800    39.932738   -138.45641    721.69044   -8359.3573   -7637.6668   0.78028448 
   64900    39.572184   -126.00436    715.17428   -8365.3341   -7650.1598   0.78028448 
   65000    39.963654    -156.4387    722.24919   -8365.1379   -7642.8887   0.78028448 
   65100    39.865331   -118.10144    720.47223   -8365.2817   -7644.8095   0.78028448 
   65200    40.780136   -152.84282    737.00517   -8360.2628   -7623.2576   0.78028448 
   65300    39.687759   -133.42668    717.26304   -8361.6702   -7644.4072   0.78028448 
   65400    40.521789   -127.21975    732.33616   -8346.1974   -7613.8612   0.78028448 
   65500    40.671866   -140.95226    735.04845   -8366.0042   -7630.9558   0.78028448 
   65600    40.790972   -139.09492    737.20102   -8355.2689   -7618.0679   0.78028448 
   65700    38.775857   -118.30695    700.78254   -8367.7449   -7666.9624   0.78028448 
   65800    39.842429   -215.58264    720.05833   -8355.7946   -7635.7362   0.78028448 
   65900    39.926713   -150.22883    721.58157   -8387.5387   -7665.9571   0.78028448 
   66000    39.959485   -178.77844    722.17384   -8355.2679    -7633.094   0.78028448 
   66100    39.948895   -183.96062    721.98245    -8359.613   -7637.6305   0.78028448 
   66200    40.184059   -134.41052     726.2325   -8371.3075    -7645.075   0.78028448 
   66300    40.694299   -118.28579    735.45388   -8358.0018   -7622.5479   0.78028448 
   66400    40.179247   -158.83214    726.14552   -8361.7833   -7635.6378   0.78028448 
   66500    40.649563   -149.97441    734.64538   -8349.8934    -7615.248   0.78028448 
   66600    40.300225   -153.08588    728.33191    -8339.366   -7611.0341   0.78028448 
   66700    40.976961   -169.37675    740.56233   -8334.3997   -7593.8374   0.78028448 
   66800      40.7775   -144.17804    736.95753   -8370.8797   -7633.9221   0.78028448 
   66900    39.514129   -138.84006    714.12507   -8359.8492   -7645.7241   0.78028448 
   67000    40.395511   -134.62111    730.05399     -8336.32    -7606.266   0.78028448 
   67100    41.686019   -169.86999    753.37688   -8358.2388   -7604.8619   0.78028448 
   67200    40.585419   -178.32603    733.48612   -8358.6541    -7625.168   0.78028448 
   67300    41.210666   -115.77752      744.786   -8352.3956   -7607.6096   0.78028448 
   67400     40.60068   -175.86046    733.76194   -8350.7811   -7617.0192   0.78028448 
   67500    41.771439   -187.47604    754.92065   -8355.2867   -7600.3661   0.78028448 
   67600    40.454849   -170.26346    731.12638    -8360.498   -7629.3716   0.78028448 
   67700    40.462032   -119.15743    731.25621   -8370.4629   -7639.2067   0.78028448 
   67800    39.792608   -160.83203    719.15793   -8351.0728   -7631.9148   0.78028448 
   67900    40.617514   -143.69363    734.06616   -8347.2236   -7613.1575   0.78028448 
   68000    41.134798   -152.44134    743.41487   -8330.4596   -7587.0447   0.78028448 
   68100    41.439875   -150.35959     748.9284   -8356.6642   -7607.7357   0.78028448 
   68200    40.522113    -136.3046    732.34202    -8357.036   -7624.6939   0.78028448 
   68300    40.375359   -150.14267    729.68979   -8356.4311   -7626.7413   0.78028448 
   68400    41.169944   -115.13481    744.05004   -8333.5635   -7589.5135   0.78028448 
   68500    41.202679   -170.29721    744.64164    -8355.539   -7610.8974   0.78028448 
   68600    40.500428   -126.21201    731.95011   -8346.5912   -7614.6411   0.78028448 
   68700    41.737045   -105.95717    754.29906   -8327.0815   -7572.7825   0.78028448 
   68800    40.963099   -132.93618     740.3118   -8361.0207   -7620.7089   0.78028448 
   68900    40.309569   -114.98579    728.50078   -8348.2423   -7619.7416   0.78028448 
   69000    41.137955   -133.27368    743.47192   -8348.5188   -7605.0469   0.78028448 
   69100     40.93112   -124.24824    739.73386   -8350.9123   -7611.1785   0.78028448 
   69200    41.386793    -129.4844    747.96907   -8339.6152   -7591.6461   0.78028448 
   69300    41.057696     -176.931    742.02142   -8343.5742   -7601.5528   0.78028448 
   69400    41.416848   -151.18141    748.51226   -8359.1201   -7610.6079   0.78028448 
   69500    41.650562   -74.094975    752.73609   -8345.5683   -7592.8322   0.78028448 
   69600    40.752968   -138.00756    736.51419   -8342.1312    -7605.617   0.78028448 
   69700    40.584979   -130.16803    733.47818   -8334.2633   -7600.7852   0.78028448 
   69800    42.573833   -107.48163    769.42205   -8351.4421     -7582.02   0.78028448 
   69900    41.867898   -171.90472    756.66392   -8326.4519   -7569.7879   0.78028448 
   70000    41.811051    -99.65398    755.63655   -8354.6708   -7599.0342   0.78028448 
   70100    42.227222   -75.812276    763.15786   -8331.9769    -7568.819   0.78028448 
   70200    41.944162   -160.72442    758.04222    -8323.684   -7565.6418   0.78028448 
   70300    42.103816   -83.320211    760.92759   -8334.8475   -7573.9199   0.78028448 
   70400    41.536857   -106.89402    750.68113   -8327.9361   -7577.2549   0.78028448 
   70500    42.355718   -200.99368    765.48013   -8354.2343   -7588.7541   0.78028448 
   70600    41.388996   -114.77992    748.00889    -8330.962   -7582.9531   0.78028448 
   70700    41.779287   -113.12917    755.06248   -8348.7433   -7593.6808   0.78028448 
   70800    41.512217   -119.34367    750.23582    -8336.088   -7585.8522   0.78028448 
   70900    41.278916   -102.14921    746.01946   -8335.8917   -7589.8723   0.78028448 
   71000    42.112386   -87.880945    761.08248   -8331.4129   -7570.3304   0.78028448 
   71100    41.769275   -120.25231    754.88155   -8356.0665    -7601.185   0.78028448 
   71200    42.659848   -165.84989    770.97656   -8334.9042   -7563.9277   0.78028448 
   71300    42.524017   -118.81822    768.52173   -8331.2606   -7562.7389   0.78028448 
   71400    41.235733   -124.93324    745.23902   -8332.1587   -7586.9197   0.78028448 
   71500    42.795471   -129.89098    773.42762   -8338.4331   -7565.0055   0.78028448 
   71600    41.806915   -136.02708    755.56179   -8313.1104   -7557.5486   0.78028448 
   71700    41.709426   -145.20959    753.79991   -8328.0441   -7574.2442   0.78028448 
   71800    42.430616    -194.5468    766.83373   -8317.4098    -7550.576   0.78028448 
   71900    41.319878    -145.5038    746.75974   -8336.9058    -7590.146   0.78028448 
   72000    42.766573    -111.1991    772.90537   -8315.7977   -7542.8924   0.78028448 
   72100    42.254097    -96.09853    763.64356   -8307.2179   -7543.5743   0.78028448 
   72200    42.178924   -124.10913    762.28499   -8290.3483   -7528.0633   0.78028448 
   72300    42.705845     -139.137    771.80784   -8319.2578     -7547.45   0.78028448 
   72400    42.102902   -112.16986    760.91106   -8316.9863   -7556.0752   0.78028448 
   72500    42.500688   -152.41997    768.10011    -8309.981   -7541.8808   0.78028448 
   72600    42.507222   -92.947084    768.21819   -8307.7114   -7539.4932   0.78028448 
   72700    41.665688   -173.70322    753.00945   -8315.3178   -7562.3084   0.78028448 
   72800    43.267858   -120.76141    781.96491   -8310.2851   -7528.3202   0.78028448 
   72900    41.830521   -119.47819    755.98842   -8304.8751   -7548.8867   0.78028448 
   73000     41.96146   -121.30575    758.35484    -8321.891   -7563.5362   0.78028448 
   73100    42.839248   -114.47053    774.21879   -8307.9144   -7533.6956   0.78028448 
   73200    42.382321   -131.75157    765.96091   -8333.2591   -7567.2982   0.78028448 
   73300    42.350648   -129.01205     765.3885   -8307.2299   -7541.8414   0.78028448 
   73400    43.582077   -113.79723    787.64369   -8310.5209   -7522.8772   0.78028448 
   73500    42.579885   -119.48244    769.53142   -8303.7845    -7534.253   0.78028448 
   73600    42.233073   -94.454056     763.2636   -8304.7027   -7541.4391   0.78028448 
   73700    41.704023   -122.78896    753.70227   -8313.9188   -7560.2166   0.78028448 
   73800    42.467179   -159.67374    767.49452   -8320.5551   -7553.0606   0.78028448 
   73900     42.67345   -65.306196    771.22238   -8311.2446   -7540.0222   0.78028448 
   74000    42.742352   -139.68498    772.46763   -8307.3738   -7534.9062   0.78028448 
   74100    42.644485   -165.70617    770.69892   -8301.5439    -7530.845   0.78028448 
   74200    42.592388   -121.94401    769.75737   -8301.5928   -7531.8354   0.78028448 
   74300    42.538438     -78.1366    768.78236   -8329.9334   -7561.1511   0.78028448 
   74400    43.480361   -52.751185     785.8054   -8318.8678   -7533.0624   0.78028448 
   74500    43.429693   -122.72715    784.88971   -8331.2647    -7546.375   0.78028448 
   74600    43.639931   -95.217308    788.68925    -8308.324   -7519.6348   0.78028448 
   74700    43.671664   -122.75397    789.26275   -8297.8891   -7508.6263   0.78028448 
   74800    43.192608   -93.026424    780.60495   -8305.0769   -7524.4719   0.78028448 
   74900    43.381784   -131.28592    784.02385   -8299.9122   -7515.8884   0.78028448 
   75000    43.789122    -137.5631    791.38554   -8312.3017   -7520.9161   0.78028448 
   75100    42.093415   -148.05015    760.73962   -8300.4938   -7539.7542   0.78028448 
   75200    43.868787   -104.94685    792.82529   -8306.4199   -7513.5946   0.78028448 
   75300    43.039721   -82.712515    777.84187   -8302.5534   -7524.7116   0.78028448 
   75400    43.536625   -128.32255    786.82224   -8295.5081   -7508.6858   0.78028448 
   75500       44.674   -143.11255    807.37763   -8306.8853   -7499.5077   0.78028448 
   75600    43.664837   -147.94448    789.13937   -8302.3946   -7513.2553   0.78028448 
   75700    43.910488   -108.11085    793.57893   -8282.6358   -7489.0569   0.78028448 
   75800    43.195093   -99.269331    780.64985   -8321.2273   -7540.5775   0.78028448 
   75900    42.159534   -155.21052    761.93456   -8314.5517   -7552.6171   0.78028448 
   76000    43.707832   -124.81622    789.91642   -8307.5861   -7517.6697   0.78028448 
   76100     43.75732   -139.06964    790.81079   -8316.4049   -7525.5941   0.78028448 
   76200    43.971598   -120.05719    794.68336   -8295.4751   -7500.7918   0.78028448 
   76300    43.963095   -142.78402    794.52969   -8302.1614   -7507.6317   0.78028448 
   76400    43.583135   -139.25088    787.66279   -8275.2582   -7487.5954   0.78028448 
   76500    43.950954   -145.15277    794.31026   -8288.8853    -7494.575   0.78028448 
   76600    43.292103   -117.14582    782.40308   -8281.4766   -7499.0736   0.78028448 
   76700    43.823853    -156.0519    792.01321   -8291.5551   -7499.5419   0.78028448 
   76800    43.232928   -118.13232    781.33363   -8307.4323   -7526.0987   0.78028448 
   76900    44.005705   -148.42923    795.29976   -8299.1845   -7503.8847   0.78028448 
   77000    43.095185   -106.40847    778.84425   -8305.0203    -7526.176   0.78028448 
   77100     43.39121    -155.6857    784.19421   -8290.6635   -7506.4693   0.78028448 
   77200    43.361127   -100.74136    783.65052   -8306.6761   -7523.0256   0.78028448 
   77300    43.655805   -129.09973    788.97614   -8294.3319   -7505.3558   0.78028448 
   77400    44.280955   -101.67957    800.27425   -8297.4654   -7497.1912   0.78028448 
   77500    44.667596    -156.3245    807.26189   -8302.4773   -7495.2155   0.78028448 
   77600    42.945985   -119.36782    776.14782    -8311.725   -7535.5772   0.78028448 
   77700    44.510334   -113.83608    804.41974    -8324.731   -7520.3113   0.78028448 
   77800    44.594111   -43.046885    805.93383    -8297.068   -7491.1341   0.78028448 
   77900    43.901633   -114.66057     793.4189   -8298.2737   -7504.8548   0.78028448 
   78000    44.178776   -89.876555    798.42761    -8293.157   -7494.7294   0.78028448 
   78100    44.336177   -119.82673    801.27228   -8300.4531   -7499.1809   0.78028448 
   78200    44.354566   -139.76902     801.6046   -8278.1599   -7476.5553   0.78028448 
   78300    44.426586   -143.82987     802.9062   -8299.7216   -7496.8154   0.78028448 
   78400    44.093202   -69.081306    796.88106   -8272.3136   -7475.4326   0.78028448 
   78500    45.406435   -106.67146    820.61466   -8302.2356   -7481.6209   0.78028448 
   78600    44.214351   -132.47644    799.07055   -8293.8489   -7494.7783   0.78028448 
   78700    44.428958   -95.605776    802.94906    -8287.513   -7484.5639   0.78028448 
   78800    44.904712   -91.438433    811.54719   -8295.4375   -7483.8903   0.78028448 
   78900     44.00278   -112.96066    795.24691    -8294.684   -7499.4371   0.78028448 
   79000    44.205277   -57.365228    798.90656   -8283.2425   -7484.3359   0.78028448 
   79100    44.190097   -93.602713    798.63221   -8307.5941   -7508.9619   0.78028448 
   79200    44.162294   -150.81318    798.12974   -8302.1219   -7503.9921   0.78028448 
   79300    44.194589   -106.48087     798.7134   -8278.8364    -7480.123   0.78028448 
   79400    44.041662   -148.56071    795.94961   -8301.9491   -7505.9995   0.78028448 
   79500    45.154283   -90.145318    816.05762   -8292.9086    -7476.851   0.78028448 
   79600    44.702713   -142.89689    807.89655   -8257.1808   -7449.2842   0.78028448 
   79700    44.949471    -88.44497    812.35611   -8270.7077   -7458.3516   0.78028448 
   79800    46.465011   -143.76199    839.74595    -8279.861    -7440.115   0.78028448 
   79900    44.587395   -89.836533    805.81244   -8261.4701   -7455.6576   0.78028448 
   80000    44.980851   -77.945052    812.92324   -8281.4213   -7468.4981   0.78028448 
   80100    44.775345   -145.73225    809.20919     -8271.51   -7462.3008   0.78028448 
   80200    45.279232    -116.8698    818.31578   -8290.3307    -7472.015   0.78028448 
   80300    45.118872   -81.458444    815.41765   -8264.8024   -7449.3847   0.78028448 
   80400     43.86296   -108.21191    792.71998   -8269.4851   -7476.7651   0.78028448 
   80500    45.036816   -135.20759    813.93467   -8267.1635   -7453.2288   0.78028448 
   80600    44.387953   -149.73314      802.208    -8283.765    -7481.557   0.78028448 
   80700    44.814171    -104.3321    809.91089   -8290.1273   -7480.2164   0.78028448 
   80800    45.346276   -72.487183    819.52744   -8274.3496   -7454.8222   0.78028448 
   80900    45.526563   -113.62803     822.7857   -8281.1378   -7458.3521   0.78028448 
   81000    45.547361   -71.758865    823.16158   -8264.9048   -7441.7432   0.78028448 
   81100    44.908078   -100.51903    811.60803   -8251.6611   -7440.0531   0.78028448 
   81200    44.553395   -100.05934    805.19797   -8263.1823   -7457.9844   0.78028448 
   81300    45.056337   -69.226677    814.28746   -8259.3173   -7445.0298   0.78028448 
   81400    43.489351   -125.91629    785.96788    -8289.781   -7503.8132   0.78028448 
   81500    44.692573   -92.980246    807.71329   -8273.1938   -7465.4805   0.78028448 
   81600    45.467705   -112.02407    821.72198   -8275.9581   -7454.2362   0.78028448 
   81700    45.751416   -160.74467    826.84938   -8249.1925   -7422.3431   0.78028448 
   81800    44.904209   -70.108105    811.53812   -8267.9314   -7456.3933   0.78028448 
   81900    46.741173    -109.5013    844.73692   -8266.4628   -7421.7259   0.78028448 
   82000    45.765144   -108.56047    827.09749   -8278.8186   -7451.7211   0.78028448 
   82100     45.78401   -103.41996    827.43845   -8270.6347   -7443.1963   0.78028448 
   82200    44.939286   -84.730264    812.17205   -8293.5154   -7481.3434   0.78028448 
   82300    45.697573   -156.16163    825.87631   -8278.4142   -7452.5379   0.78028448 
   82400    46.265332   -76.020622    836.13721   -8276.2631   -7440.1259   0.78028448 
   82500    45.240893   -106.19901    817.62289   -8269.9217   -7452.2988   0.78028448 
   82600    46.276486    21.129527    836.33879   -8244.8059   -7408.4671   0.78028448 
   82700    47.038219    -147.1364    850.10534   -8241.4202   -7391.3149   0.78028448 
   82800    46.381329   -78.551478    838.23359   -8238.4313   -7400.1977   0.78028448 
   82900    46.845788   -116.69649    846.62759   -8244.5455   -7397.9179   0.78028448 
   83000    45.837576   -132.76151    828.40653   -8258.5345    -7430.128   0.78028448 
   83100     46.20927   -117.83683    835.12402   -8268.8273   -7433.7033   0.78028448 
   83200    46.015987   -122.17935    831.63089   -8243.5205   -7411.8896   0.78028448 
   83300    46.799578   -132.25555    845.79246   -8244.9777   -7399.1853   0.78028448 
   83400    46.324053   -99.214676    837.19845   -8245.1601   -7407.9617   0.78028448 
   83500    46.236586   -127.31584    835.61769   -8257.1001   -7421.4824   0.78028448 
   83600    45.492429   -134.13656    822.16881   -8233.7861   -7411.6173   0.78028448 
   83700    46.247488   -92.120773    835.81473    -8243.456   -7407.6412   0.78028448 
   83800    45.565736   -108.89574    823.49365   -8266.9303   -7443.4367   0.78028448 
   83900    46.470687   -125.26305    839.84852   -8246.5485      -7406.7   0.78028448 
   84000    45.776296   -101.64441    827.29903   -8259.3113   -7432.0123   0.78028448 
   84100    45.375992   -109.29634    820.06448    -8270.032   -7449.9675   0.78028448 
   84200    45.487971   -120.09408    822.08824   -8261.1309   -7439.0427   0.78028448 
   84300    46.671196   -78.550857    843.47225   -8232.8679   -7389.3957   0.78028448 
   84400    46.508624   -147.67589    840.53415   -8254.4328   -7413.8987   0.78028448 
   84500    45.551808   -97.464357    823.24195   -8267.8131   -7444.5711   0.78028448 
   84600    45.907677   -75.042209    829.67344   -8239.7022   -7410.0288   0.78028448 
   84700    46.336399   -124.72684    837.42158   -8257.7195   -7420.2979   0.78028448 
   84800    45.658807   -81.652139     825.1757   -8240.3715   -7415.1958   0.78028448 
   84900    46.325129   -115.54863     837.2179   -8262.3209    -7425.103   0.78028448 
   85000    46.564171   -69.826008    841.53802   -8242.6472   -7401.1091   0.78028448 
   85100    46.884009   -71.017304    847.31834   -8254.7609   -7407.4425   0.78028448 
   85200    46.854366   -47.151329    846.78262   -8240.9081   -7394.1255   0.78028448 
   85300    45.841138   -68.672232     828.4709   -8241.0624   -7412.5915   0.78028448 
   85400     46.79899   -92.002332    845.78184   -8245.0255   -7399.2437   0.78028448 
   85500    46.871124   -105.61888    847.08548   -8280.7084   -7433.6229   0.78028448 
   85600    47.679997   -37.545328    861.70396   -8255.9427   -7394.2387   0.78028448 
   85700     46.91171   -148.23059    847.81898   -8239.2787   -7391.4597   0.78028448 
   85800     46.12248   -79.631153    833.55549   -8235.3418   -7401.7864   0.78028448 
   85900    47.417004   -139.99318    856.95098   -8259.5234   -7402.5724   0.78028448 
[...]
  179300    302.98417    49.904663    5475.7273   -3510.9736    1964.7537   0.78028448 
  179400    299.28225    99.697936    5408.8238   -3585.9193    1822.9045   0.78028448 
  179500    301.12414    120.46024    5442.1116   -3426.8855    2015.2261   0.78028448 
  179600    299.39273    27.422988    5410.8204   -3446.8893    1963.9311   0.78028448 
  179700    307.67037    -54.76387    5560.4193   -3362.4211    2197.9982   0.78028448 
  179800    307.94381     -36.8898    5565.3611   -3617.7165    1947.6446   0.78028448 
  179900    305.21713    43.129412    5516.0827   -3538.2969    1977.7858   0.78028448 
  180000    303.90282    19.926806    5492.3297   -3550.7897      1941.54   0.78028448 
  180100    298.41125   -17.560969    5393.0825   -3563.1938    1829.8887   0.78028448 
  180200    297.66615    126.78602    5379.6165   -3514.3975    1865.2189   0.78028448 
  180300    303.16635    56.923457    5479.0198   -3455.8877    2023.1321   0.78028448 
  180400    308.66103    83.314506    5578.3231   -3451.5377    2126.7854   0.78028448 
  180500    305.30801    114.88037    5517.7253   -3409.1729    2108.5524   0.78028448 
  180600    303.36614    134.18943    5482.6305   -3439.9744    2042.6561   0.78028448 
  180700    303.82848   -100.94462    5490.9862   -3402.7461    2088.2402   0.78028448 
  180800    306.55164    43.195259     5540.201   -3480.6123    2059.5886   0.78028448 
  180900    306.18884    69.140168    5533.6442   -3461.5292     2072.115   0.78028448 
  181000    306.86791    167.62064    5545.9168   -3509.9987    2035.9181   0.78028448 
  181100    307.04169    256.80068    5549.0574   -3366.3581    2182.6992   0.78028448 
  181200    301.77591    97.972555    5453.8907   -3382.3327     2071.558   0.78028448 
  181300    307.26956    106.74817    5553.1756   -3507.5161    2045.6595   0.78028448 
  181400    305.74721     87.76934    5525.6627   -3460.9338    2064.7289   0.78028448 
  181500    308.25491    106.81019    5570.9834   -3404.5891    2166.3944   0.78028448 
  181600    308.99243    117.49607    5584.3124   -3340.6922    2243.6202   0.78028448 
  181700    308.74883    53.162543      5579.91   -3542.9822    2036.9278   0.78028448 
  181800      307.529    86.678466    5557.8644   -3510.6461    2047.2183   0.78028448 
  181900    307.90423    33.098441    5564.6458   -3420.9534    2143.6924   0.78028448 
  182000    309.56236    53.449656    5594.6126   -3394.6711    2199.9415   0.78028448 
  182100    306.43929    293.48834    5538.1704   -3469.5019    2068.6685   0.78028448 
  182200    309.33259    40.329561    5590.4601   -3428.8652    2161.5949   0.78028448 
  182300    307.96581    134.12938    5565.7586   -3495.5582    2070.2004   0.78028448 
  182400    309.48959    170.03647    5593.2975    -3444.992    2148.3054   0.78028448 
  182500    307.06277    130.42409    5549.4384   -3507.2908    2042.1475   0.78028448 
  182600    304.62648    56.710107    5505.4082   -3447.5986    2057.8096   0.78028448 
  182700    307.30851    155.61283    5553.8796   -3456.4851    2097.3946   0.78028448 
  182800    317.56689    44.891382    5739.2756   -3480.5277    2258.7479   0.78028448 
  182900    308.76247    -15.83688    5580.1565   -3441.3752    2138.7814   0.78028448 
  183000    309.27727    10.863034    5589.4602   -3509.7901    2079.6702   0.78028448 
  183100    306.70495    110.18897    5542.9716   -3427.1579    2115.8138   0.78028448 
  183200    306.98316    27.578099    5547.9996   -3516.8288    2031.1709   0.78028448 
  183300    311.94088    35.928824    5637.5987   -3458.2682    2179.3304   0.78028448 
  183400    313.26724   -42.713489    5661.5696   -3445.1195    2216.4501   0.78028448 
  183500    306.80948   -27.242239    5544.8607   -3365.7256    2179.1351   0.78028448 
  183600    308.71434    59.369558    5579.2866   -3370.5682    2208.7184   0.78028448 
  183700    304.35902    172.61789    5500.5744   -3492.6015    2007.9729   0.78028448 
  183800    315.99542    153.66572    5710.8751   -3415.4069    2295.4682   0.78028448 
  183900     308.4187    169.28437    5573.9437   -3390.1285    2183.8152   0.78028448 
  184000    308.01055    6.3633923    5566.5673   -3483.1253     2083.442   0.78028448 
  184100    306.37781    89.534323    5537.0594   -3587.8563     1949.203   0.78028448 
  184200    306.25671   -53.698271    5534.8707   -3483.7035    2051.1672   0.78028448 
  184300    315.65489    104.85499    5704.7207   -3486.4781    2218.2426   0.78028448 
  184400    309.52317    15.629355    5593.9043   -3550.0744    2043.8299   0.78028448 
  184500    309.78784   -21.735685    5598.6876   -3494.1755    2104.5121   0.78028448 
  184600    306.26625    32.971798    5535.0432   -3604.9617    1930.0815   0.78028448 
  184700    303.17501    28.179091    5479.1762   -3458.8143    2020.3619   0.78028448 
  184800    300.80414   -54.719854    5436.3283   -3375.7525    2060.5758   0.78028448 
  184900    310.42556    33.627122    5610.2129   -3376.9287    2233.2842   0.78028448 
  185000     307.8569   -58.266616    5563.7903   -3344.4437    2219.3466   0.78028448 
  185100    310.15514    116.18436    5605.3256   -3376.0947    2229.2309   0.78028448 
  185200    317.61808    30.103021    5740.2009   -3500.2949     2239.906   0.78028448 
  185300    316.05962    16.281253    5712.0352   -3434.1613    2277.8739   0.78028448 
  185400    308.17785    7.9739107    5569.5908   -3370.7124    2198.8784   0.78028448 
  185500    313.04886    164.40088    5657.6229   -3418.2691    2239.3538   0.78028448 
  185600    308.86754     59.63398    5582.0553    -3445.145    2136.9103   0.78028448 
  185700    301.82411    121.48029    5454.7619   -3337.7096    2117.0522   0.78028448 
  185800    312.04936    209.33129    5639.5592   -3542.4182    2097.1411   0.78028448 
  185900    309.69651    196.36548     5597.037   -3416.9376    2180.0994   0.78028448 
  186000    312.21922    145.75495    5642.6291   -3398.2692    2244.3599   0.78028448 
  186100    303.18592    87.032451    5479.3735   -3369.0472    2110.3263   0.78028448 
  186200    312.10601     38.70888    5640.5832   -3427.4516    2213.1316   0.78028448 
  186300    304.63798    114.95295     5505.616   -3354.5585    2151.0575   0.78028448 
  186400    300.15289    166.01142    5424.5584   -3287.0848    2137.4736   0.78028448 
  186500    311.40237    261.99174    5627.8665   -3352.3512    2275.5153   0.78028448 
  186600    307.24302     25.39248     5552.696   -3395.8686    2156.8274   0.78028448 
  186700    302.14321    70.029779    5460.5289   -3425.4584    2035.0705   0.78028448 
  186800    306.31209   -9.8549224    5535.8716   -3547.9889    1987.8828   0.78028448 
  186900    306.97155    96.788924    5547.7898   -3466.1856    2081.6042   0.78028448 
  187000    311.05245    6.9822296    5621.5424   -3479.9508    2141.5916   0.78028448 
  187100    310.58633    24.321676    5613.1185   -3500.4059    2112.7127   0.78028448 
  187200    312.81288    112.30603    5653.3582   -3411.1988    2242.1594   0.78028448 
  187300    311.76404    206.40937    5634.4027   -3403.1113    2231.2914   0.78028448 
  187400    308.31856    29.804211    5572.1339   -3466.2621    2105.8717   0.78028448 
  187500    312.98518    46.971752     5656.472   -3357.2447    2299.2273   0.78028448 
  187600    308.87359    93.059272    5582.1648   -3354.0824    2228.0824   0.78028448 
  187700    318.21394    82.675428    5750.9696    -3423.949    2327.0206   0.78028448 
  187800    314.54925    166.54521    5684.7389   -3352.0991    2332.6398   0.78028448 
  187900    316.56002    265.43451    5721.0789   -3469.3532    2251.7257   0.78028448 
  188000    307.72019    133.55972    5561.3197   -3326.6175    2234.7022   0.78028448 
  188100    310.71557    14.344539    5615.4542   -3278.7984    2336.6558   0.78028448 
  188200    312.89458   -16.254358    5654.8346   -3271.5479    2383.2867   0.78028448 
  188300    313.79946    81.190494    5671.1882   -3408.8681    2262.3201   0.78028448 
  188400    310.38677    20.642631    5609.5119    -3461.509    2148.0029   0.78028448 
  188500    313.03696    33.313701    5657.4078   -3394.5665    2262.8413   0.78028448 
  188600    312.58503    207.54955    5649.2402   -3351.8362     2297.404   0.78028448 
  188700     313.7324     269.6908    5669.9763   -3330.5439    2339.4324   0.78028448 
  188800     304.2334    172.61291    5498.3041   -3443.5655    2054.7385   0.78028448 
  188900    316.09532    130.57441    5712.6805   -3434.1084     2278.572   0.78028448 
  189000    314.56013    182.39336    5684.9356   -3436.8244    2248.1112   0.78028448 
  189100      309.743    71.172941    5597.8772   -3343.4898    2254.3875   0.78028448 
  189200    315.06631    11.712009    5694.0835   -3439.4975     2254.586   0.78028448 
  189300    312.98896   -28.988798    5656.5403    -3319.611    2336.9294   0.78028448 
  189400       316.41    56.588607    5718.3676   -3398.8783    2319.4893   0.78028448 
  189500    308.42977    33.146585    5574.1437   -3256.3208    2317.8229   0.78028448 
  189600    305.76455   -14.312396    5525.9761   -3328.7755    2197.2006   0.78028448 
  189700    309.63261    38.576292    5595.8821   -3426.8031    2169.0791   0.78028448 
  189800    309.91446    5.4727105    5600.9759   -3383.2368    2217.7392   0.78028448 
  189900    312.98584    145.11567     5656.484   -3375.3034    2281.1806   0.78028448 
  190000    309.19112     105.3065    5587.9033   -3349.9416    2237.9617   0.78028448 
  190100    318.66406     128.6347    5759.1045   -3411.7091    2347.3953   0.78028448 
  190200    313.97627    101.58769    5674.3837   -3304.2149    2370.1688   0.78028448 
  190300    311.45136    107.62391    5628.7519    -3283.218    2345.5339   0.78028448 
  190400    314.35128    62.979839    5681.1611   -3404.0462    2277.1149   0.78028448 
  190500      312.262    86.721234    5643.4022   -3399.0291    2244.3731   0.78028448 
  190600    313.97552    86.797878      5674.37   -3309.1245    2365.2456   0.78028448 
  190700    313.91587    97.595692    5673.2921   -3240.1593    2433.1329   0.78028448 
  190800    318.85531    97.508142    5762.5609    -3250.011    2512.5499   0.78028448 
  190900    310.55967    183.94965    5612.6366   -3221.0138    2391.6228   0.78028448 
  191000     316.7088    109.11084    5723.7676   -3286.5045    2437.2632   0.78028448 
  191100    313.84628    64.549214    5672.0344   -3282.1557    2389.8787   0.78028448 
  191200    313.57549    122.57894    5667.1405   -3286.6899    2380.4506   0.78028448 
  191300    314.46832    85.884072    5683.2763   -3398.2208    2285.0555   0.78028448 
  191400    306.66099    79.627762    5542.1772   -3301.6386    2240.5386   0.78028448 
  191500    310.39459   -88.885778    5609.6532   -3332.9188    2276.7344   0.78028448 
  191600    316.54664    113.33327     5720.837   -3332.2612    2388.5758   0.78028448 
  191700    320.47716   -3.9466232    5791.8719   -3328.9925    2462.8795   0.78028448 
  191800    326.04711    99.085773    5892.5357   -3307.7874    2584.7483   0.78028448 
  191900    316.25039   -6.2488287    5715.4831   -3166.4359    2549.0471   0.78028448 
  192000    315.11327    35.452108    5694.9322   -3302.1879    2392.7443   0.78028448 
  192100    316.39058    185.83038    5718.0166   -3287.1899    2430.8267   0.78028448 
  192200    311.93999    30.315387    5637.5826   -3245.8029    2391.7798   0.78028448 
  192300    316.80606    2.2882048    5725.5254   -3357.8908    2367.6347   0.78028448 
  192400    313.56344    132.95579    5666.9226    -3231.807    2435.1157   0.78028448 
  192500    314.99752     94.68564    5692.8403   -3202.0962    2490.7441   0.78028448 
  192600    317.26969    188.78634    5733.9045   -3212.8333    2521.0712   0.78028448 
  192700     319.4817    109.63588    5773.8813    -3129.204    2644.6774   0.78028448 
  192800    316.75922    36.927451    5724.6789   -3317.6971    2406.9818   0.78028448 
  192900     316.2443    135.61606    5715.3729   -3287.2026    2428.1703   0.78028448 
  193000    318.21343     187.0873    5750.9604   -3282.9054    2468.0549   0.78028448 
  193100    315.22447    191.29879     5696.942   -3275.9447    2420.9973   0.78028448 
  193200    315.97708    85.872479    5710.5436   -3281.2894    2429.2542   0.78028448 
  193300     319.4314    110.56069    5772.9723   -3359.5169    2413.4554   0.78028448 
  193400    316.89684    34.377951    5727.1661   -3296.4519    2430.7143   0.78028448 
  193500    314.37627    168.07781    5681.6127   -3324.9778    2356.6349   0.78028448 
  193600    316.15926     172.6553    5713.8361    -3345.812    2368.0241   0.78028448 
  193700    323.71439     180.5182    5850.3773   -3367.9739    2482.4034   0.78028448 
  193800    317.94612   -63.605803    5746.1294   -3314.0483    2432.0811   0.78028448 
  193900    315.33201    158.89397    5698.8855   -3274.0734    2424.8121   0.78028448 
  194000    311.11652    185.77865    5622.7004   -3227.5355    2395.1649   0.78028448 
  194100    315.96726    56.620601    5710.3661   -3307.1931     2403.173   0.78028448 
  194200    319.24051    240.58387    5769.5225    -3237.791    2531.7315   0.78028448 
  194300    317.29479     102.7392     5734.358   -3277.2606    2457.0974   0.78028448 
  194400    316.65599    20.657617    5722.8134   -3298.6453    2424.1681   0.78028448 
  194500    311.24286    34.084618    5624.9837   -3296.4585    2328.5252   0.78028448 
  194600    313.27166    3.0338491    5661.6495   -3299.6749    2361.9746   0.78028448 
  194700    315.44214    138.21989    5700.8758   -3276.4506    2424.4252   0.78028448 
  194800    317.61821    140.02271    5740.2031   -3290.5419    2449.6612   0.78028448 
  194900    318.47105    21.758127    5755.6163   -3207.7272    2547.8891   0.78028448 
  195000    319.72496    190.04928    5778.2777   -3207.9166    2570.3611   0.78028448 
  195100    319.38576    65.195913    5772.1475   -3174.8951    2597.2523   0.78028448 
  195200    322.50493    39.864225    5828.5192   -3306.5007    2522.0186   0.78028448 
  195300    316.33084    246.90345     5716.937   -3262.6741    2454.2628   0.78028448 
  195400    321.67785    87.581357    5813.5716   -3245.7364    2567.8352   0.78028448 
  195500    318.93544    32.651143     5764.009   -3271.5005    2492.5085   0.78028448 
  195600    318.32742    24.486281    5753.0206   -3159.0782    2593.9424   0.78028448 
  195700    317.69981    49.479702     5741.678   -3242.5123    2499.1657   0.78028448 
  195800    322.82215   -58.307816    5834.2522   -3240.7708    2593.4814   0.78028448 
  195900    326.55814    87.716531    5901.7715   -3260.6348    2641.1366   0.78028448 
  196000    319.59464    94.349171    5775.9225   -3337.8302    2438.0923   0.78028448 
  196100     310.6527    80.367358    5614.3179   -3239.3783    2374.9396   0.78028448 
  196200    319.30742   -28.080457    5770.7317   -3245.0306    2525.7011   0.78028448 
  196300    313.53159    151.18298    5666.3472   -3185.6969    2480.6503   0.78028448 
  196400    317.69877    91.419498    5741.6591    -3331.511    2410.1481   0.78028448 
  196500    318.15395    67.427444    5749.8854   -3205.8595    2544.0259   0.78028448 
  196600    315.24609    71.871315    5697.3327   -3280.5689    2416.7638   0.78028448 
  196700    321.31777    -61.69044     5807.064   -3264.8018    2542.2622   0.78028448 
  196800    319.44166    73.487539    5773.1578   -3218.0081    2555.1497   0.78028448 
  196900    316.73739    134.52653    5724.2844   -3195.8893    2528.3951   0.78028448 
  197000    319.38498    179.14474    5772.1334   -3128.5241    2643.6093   0.78028448 
  197100    319.55137    170.07648    5775.1405   -3209.2931    2565.8474   0.78028448 
  197200    317.49198     25.41308    5737.9219   -3232.3532    2505.5688   0.78028448 
  197300    322.84148     207.4698    5834.6015   -3124.5357    2710.0658   0.78028448 
  197400    317.99708   -9.8615695    5747.0504   -3224.8032    2522.2473   0.78028448 
  197500    314.48064     13.62846     5683.499    -3262.535     2420.964   0.78028448 
  197600     315.3195    54.798525    5698.6594   -3291.4737    2407.1857   0.78028448 
  197700     321.7871    113.84019    5815.5461   -3181.1111     2634.435   0.78028448 
  197800    321.89468    119.28254    5817.4904   -3161.5653    2655.9251   0.78028448 
  197900     324.5418    43.116435    5865.3308   -3174.7951    2690.5357   0.78028448 
  198000    321.48179   -36.793861    5810.0284   -3136.0412    2673.9872   0.78028448 
  198100    320.37659    44.859665    5790.0544   -3133.1212    2656.9333   0.78028448 
  198200    325.89219     116.8607    5889.7359   -3201.0911    2688.6448   0.78028448 
  198300    315.80625    169.77862    5707.4563   -3332.1468    2375.3095   0.78028448 
  198400    314.95425     34.41831    5692.0584   -3250.7396    2441.3188   0.78028448 
  198500    321.10907   -22.135571    5803.2922   -3198.3882     2604.904   0.78028448 
  198600    313.18838     122.9983    5660.1444   -3324.2023    2335.9421   0.78028448 
  198700    314.33538    48.405932    5680.8738   -3311.6829    2369.1909   0.78028448 
  198800    316.79987    102.52778    5725.4136   -3298.4402    2426.9734   0.78028448 
  198900    313.53951    17.353854    5666.4903   -3147.9325    2518.5578   0.78028448 
  199000    312.53135    76.763051    5648.2702   -3218.5959    2429.6742   0.78028448 
  199100     315.9042    167.16673    5709.2264   -3289.1525    2420.0739   0.78028448 
  199200    314.83681   -44.054163    5689.9359   -3395.2093    2294.7266   0.78028448 
  199300    314.85749    137.79051    5690.3097    -3194.364    2495.9457   0.78028448 
  199400    321.57331     20.09431    5811.6823   -3152.6797    2659.0025   0.78028448 
  199500    317.22374    165.82762     5733.074   -3200.5968    2532.4772   0.78028448 
  199600    317.92061    129.88624    5745.6683   -3130.0369    2615.6314   0.78028448 
  199700    313.28135   -27.891558    5661.8247   -3153.4572    2508.3675   0.78028448 
  199800    317.85493    99.207943    5744.4814   -3268.4907    2475.9907   0.78028448 
  199900    318.63592   -33.138683    5758.5958    -3300.883    2457.7128   0.78028448 
  200000    319.00132    136.64704    5765.1996   -3248.4715    2516.7281   0.78028448 
  200100    312.56332     225.1149    5648.8479   -3154.9805    2493.8674   0.78028448 
Loop time of 568.771 on 12 procs for 100000 steps with 6064 atoms

Performance: 15.191 ns/day, 1.580 hours/ns, 175.818 timesteps/s
98.9% CPU use with 12 MPI tasks x 1 OpenMP threads

MPI task timing breakdown:
Section |  min time  |  avg time  |  max time  |%varavg| %total
---------------------------------------------------------------
Pair    | 348.1      | 372.9      | 393.47     |  64.5 | 65.56
Bond    | 19.435     | 20.709     | 22.086     |  19.9 |  3.64
Kspace  | 131.58     | 150.4      | 172.45     |  91.0 | 26.44
Neigh   | 1.2925     | 1.2934     | 1.2939     |   0.0 |  0.23
Comm    | 11.121     | 15.927     | 19.831     |  66.4 |  2.80
Output  | 0.04437    | 0.051545   | 0.12778    |  10.1 |  0.01
Modify  | 4.0496     | 4.5525     | 4.9111     |  14.3 |  0.80
Other   |            | 2.941      |            |       |  0.52

Nlocal:    505.333 ave 528 max 483 min
Histogram: 2 1 1 0 1 2 2 0 1 2
Nghost:    4048.5 ave 4078 max 4008 min
Histogram: 2 1 0 0 3 0 1 0 1 4
Neighs:    365849 ave 384967 max 345662 min
Histogram: 3 0 0 0 2 0 4 1 1 1

Total # of neighbors = 4390189
Ave neighs/atom = 723.976
Ave special neighs/atom = 6.75462
Neighbor list builds = 155
Dangerous builds = 0
System init for write_restart ...
Ewald initialization ...
WARNING: Using 12-bit tables for long-range coulomb (../kspace.cpp:321)
  G vector (1/distance) = 0.123963
  estimated absolute RMS force accuracy = 0.0398863
  estimated relative force accuracy = 0.000120117
  KSpace vectors: actual max1d max3d = 432 6 1098
                  kxmax kymax kzmax  = 5 5 6
Total wall time: 0:18:58
