LAMMPS data file via System.Write_LAMMPS_Data()

4272 atoms
7 atom types
2816 bonds
4 bond types
4864 angles
6 angle types
3840 dihedrals
4 dihedral types


0.0000 81.6000 xlo xhi
0.0000 70.6670 ylo yhi
0.0000 100.0000 zlo zhi


Masses

1 32.060
2 12.011
3 12.011
4 15.999
5 12.011
6 1.008
7 196.960


Pair Coeffs # lj/cut/coul/long

1 0.390 4.250
2 0.066 3.500
3 0.066 3.500
4 0.170 3.000
5 0.066 3.500
6 0.030 2.500
7 0.039 2.935


Bond Coeffs # harmonic

1 222.0000 1.8100
2 268.0000 1.5290
3 320.0000 1.4100
4 340.0000 1.0900


Angle Coeffs # harmonic

1 37.5000 110.7000
2 62.0000 114.0000
3 35.0000 109.5000
4 33.0000 107.8000
5 50.0000 109.5000
6 60.0000 109.5000


Dihedral Coeffs # opls

1 0.0000 0.0000 0.4680 0.0000
2 0.0000 0.0000 0.0000 0.0000
3 0.0000 0.0000 0.3000 0.0000
4 0.6500 -0.2500 0.6700 0.0000


Atoms # full

1 0 7 0.00000000 0.0000 0.0000 0.0000
2 0 7 0.00000000 2.0400 3.5334 0.0000
3 0 7 0.00000000 2.0400 5.8890 3.3313
4 0 7 0.00000000 0.0000 2.3556 3.3313
5 0 7 0.00000000 4.0800 0.0000 0.0000
6 0 7 0.00000000 6.1200 3.5334 0.0000
7 0 7 0.00000000 6.1200 5.8890 3.3313
8 0 7 0.00000000 4.0800 2.3556 3.3313
9 0 7 0.00000000 8.1600 0.0000 0.0000
10 0 7 0.00000000 10.2000 3.5334 0.0000
11 0 7 0.00000000 10.2000 5.8890 3.3313
12 0 7 0.00000000 8.1600 2.3556 3.3313
13 0 7 0.00000000 12.2400 0.0000 0.0000
14 0 7 0.00000000 14.2800 3.5334 0.0000
15 0 7 0.00000000 14.2800 5.8890 3.3313
16 0 7 0.00000000 12.2400 2.3556 3.3313
17 0 7 0.00000000 16.3200 0.0000 0.0000
18 0 7 0.00000000 18.3600 3.5334 0.0000
19 0 7 0.00000000 18.3600 5.8890 3.3313
20 0 7 0.00000000 16.3200 2.3556 3.3313
21 0 7 0.00000000 20.4000 0.0000 0.0000
22 0 7 0.00000000 22.4400 3.5334 0.0000
23 0 7 0.00000000 22.4400 5.8890 3.3313
24 0 7 0.00000000 20.4000 2.3556 3.3313
25 0 7 0.00000000 24.4800 0.0000 0.0000
26 0 7 0.00000000 26.5200 3.5334 0.0000
27 0 7 0.00000000 26.5200 5.8890 3.3313
28 0 7 0.00000000 24.4800 2.3556 3.3313
29 0 7 0.00000000 28.5600 0.0000 0.0000
30 0 7 0.00000000 30.6000 3.5334 0.0000
31 0 7 0.00000000 30.6000 5.8890 3.3313
32 0 7 0.00000000 28.5600 2.3556 3.3313
33 0 7 0.00000000 32.6400 0.0000 0.0000
34 0 7 0.00000000 34.6800 3.5334 0.0000
35 0 7 0.00000000 34.6800 5.8890 3.3313
36 0 7 0.00000000 32.6400 2.3556 3.3313
37 0 7 0.00000000 36.7200 0.0000 0.0000
38 0 7 0.00000000 38.7600 3.5334 0.0000
39 0 7 0.00000000 38.7600 5.8890 3.3313
40 0 7 0.00000000 36.7200 2.3556 3.3313
41 0 7 0.00000000 40.8000 0.0000 0.0000
42 0 7 0.00000000 42.8400 3.5334 0.0000
43 0 7 0.00000000 42.8400 5.8890 3.3313
44 0 7 0.00000000 40.8000 2.3556 3.3313
45 0 7 0.00000000 44.8800 0.0000 0.0000
46 0 7 0.00000000 46.9200 3.5334 0.0000
47 0 7 0.00000000 46.9200 5.8890 3.3313
48 0 7 0.00000000 44.8800 2.3556 3.3313
49 0 7 0.00000000 48.9600 0.0000 0.0000
50 0 7 0.00000000 51.0000 3.5334 0.0000
51 0 7 0.00000000 51.0000 5.8890 3.3313
52 0 7 0.00000000 48.9600 2.3556 3.3313
53 0 7 0.00000000 53.0400 0.0000 0.0000
54 0 7 0.00000000 55.0800 3.5334 0.0000
55 0 7 0.00000000 55.0800 5.8890 3.3313
56 0 7 0.00000000 53.0400 2.3556 3.3313
57 0 7 0.00000000 57.1200 0.0000 0.0000
58 0 7 0.00000000 59.1600 3.5334 0.0000
59 0 7 0.00000000 59.1600 5.8890 3.3313
60 0 7 0.00000000 57.1200 2.3556 3.3313
61 0 7 0.00000000 61.2000 0.0000 0.0000
62 0 7 0.00000000 63.2400 3.5334 0.0000
63 0 7 0.00000000 63.2400 5.8890 3.3313
64 0 7 0.00000000 61.2000 2.3556 3.3313
65 0 7 0.00000000 65.2800 0.0000 0.0000
66 0 7 0.00000000 67.3200 3.5334 0.0000
67 0 7 0.00000000 67.3200 5.8890 3.3313
68 0 7 0.00000000 65.2800 2.3556 3.3313
69 0 7 0.00000000 69.3600 0.0000 0.0000
70 0 7 0.00000000 71.4000 3.5334 0.0000
71 0 7 0.00000000 71.4000 5.8890 3.3313
72 0 7 0.00000000 69.3600 2.3556 3.3313
73 0 7 0.00000000 73.4400 0.0000 0.0000
74 0 7 0.00000000 75.4800 3.5334 0.0000
75 0 7 0.00000000 75.4800 5.8890 3.3313
76 0 7 0.00000000 73.4400 2.3556 3.3313
77 0 7 0.00000000 77.5200 0.0000 0.0000
78 0 7 0.00000000 79.5600 3.5334 0.0000
79 0 7 0.00000000 79.5600 5.8890 3.3313
80 0 7 0.00000000 77.5200 2.3556 3.3313
81 0 7 0.00000000 0.0000 7.0668 0.0000
82 0 7 0.00000000 2.0400 10.6002 0.0000
83 0 7 0.00000000 2.0400 12.9557 3.3313
84 0 7 0.00000000 0.0000 9.4224 3.3313
85 0 7 0.00000000 4.0800 7.0668 0.0000
86 0 7 0.00000000 6.1200 10.6002 0.0000
87 0 7 0.00000000 6.1200 12.9557 3.3313
88 0 7 0.00000000 4.0800 9.4224 3.3313
89 0 7 0.00000000 8.1600 7.0668 0.0000
90 0 7 0.00000000 10.2000 10.6002 0.0000
91 0 7 0.00000000 10.2000 12.9557 3.3313
92 0 7 0.00000000 8.1600 9.4224 3.3313
93 0 7 0.00000000 12.2400 7.0668 0.0000
94 0 7 0.00000000 14.2800 10.6002 0.0000
95 0 7 0.00000000 14.2800 12.9557 3.3313
96 0 7 0.00000000 12.2400 9.4224 3.3313
97 0 7 0.00000000 16.3200 7.0668 0.0000
98 0 7 0.00000000 18.3600 10.6002 0.0000
99 0 7 0.00000000 18.3600 12.9557 3.3313
100 0 7 0.00000000 16.3200 9.4224 3.3313
101 0 7 0.00000000 20.4000 7.0668 0.0000
102 0 7 0.00000000 22.4400 10.6002 0.0000
103 0 7 0.00000000 22.4400 12.9557 3.3313
104 0 7 0.00000000 20.4000 9.4224 3.3313
105 0 7 0.00000000 24.4800 7.0668 0.0000
106 0 7 0.00000000 26.5200 10.6002 0.0000
107 0 7 0.00000000 26.5200 12.9557 3.3313
108 0 7 0.00000000 24.4800 9.4224 3.3313
109 0 7 0.00000000 28.5600 7.0668 0.0000
110 0 7 0.00000000 30.6000 10.6002 0.0000
111 0 7 0.00000000 30.6000 12.9557 3.3313
112 0 7 0.00000000 28.5600 9.4224 3.3313
113 0 7 0.00000000 32.6400 7.0668 0.0000
114 0 7 0.00000000 34.6800 10.6002 0.0000
115 0 7 0.00000000 34.6800 12.9557 3.3313
116 0 7 0.00000000 32.6400 9.4224 3.3313
117 0 7 0.00000000 36.7200 7.0668 0.0000
118 0 7 0.00000000 38.7600 10.6002 0.0000
119 0 7 0.00000000 38.7600 12.9557 3.3313
120 0 7 0.00000000 36.7200 9.4224 3.3313
121 0 7 0.00000000 40.8000 7.0668 0.0000
122 0 7 0.00000000 42.8400 10.6002 0.0000
123 0 7 0.00000000 42.8400 12.9557 3.3313
124 0 7 0.00000000 40.8000 9.4224 3.3313
125 0 7 0.00000000 44.8800 7.0668 0.0000
126 0 7 0.00000000 46.9200 10.6002 0.0000
127 0 7 0.00000000 46.9200 12.9557 3.3313
128 0 7 0.00000000 44.8800 9.4224 3.3313
129 0 7 0.00000000 48.9600 7.0668 0.0000
130 0 7 0.00000000 51.0000 10.6002 0.0000
131 0 7 0.00000000 51.0000 12.9557 3.3313
132 0 7 0.00000000 48.9600 9.4224 3.3313
133 0 7 0.00000000 53.0400 7.0668 0.0000
134 0 7 0.00000000 55.0800 10.6002 0.0000
135 0 7 0.00000000 55.0800 12.9557 3.3313
136 0 7 0.00000000 53.0400 9.4224 3.3313
137 0 7 0.00000000 57.1200 7.0668 0.0000
138 0 7 0.00000000 59.1600 10.6002 0.0000
139 0 7 0.00000000 59.1600 12.9557 3.3313
140 0 7 0.00000000 57.1200 9.4224 3.3313
141 0 7 0.00000000 61.2000 7.0668 0.0000
142 0 7 0.00000000 63.2400 10.6002 0.0000
143 0 7 0.00000000 63.2400 12.9557 3.3313
144 0 7 0.00000000 61.2000 9.4224 3.3313
145 0 7 0.00000000 65.2800 7.0668 0.0000
146 0 7 0.00000000 67.3200 10.6002 0.0000
147 0 7 0.00000000 67.3200 12.9557 3.3313
148 0 7 0.00000000 65.2800 9.4224 3.3313
149 0 7 0.00000000 69.3600 7.0668 0.0000
150 0 7 0.00000000 71.4000 10.6002 0.0000
151 0 7 0.00000000 71.4000 12.9557 3.3313
152 0 7 0.00000000 69.3600 9.4224 3.3313
153 0 7 0.00000000 73.4400 7.0668 0.0000
154 0 7 0.00000000 75.4800 10.6002 0.0000
155 0 7 0.00000000 75.4800 12.9557 3.3313
156 0 7 0.00000000 73.4400 9.4224 3.3313
157 0 7 0.00000000 77.5200 7.0668 0.0000
158 0 7 0.00000000 79.5600 10.6002 0.0000
159 0 7 0.00000000 79.5600 12.9557 3.3313
160 0 7 0.00000000 77.5200 9.4224 3.3313
161 0 7 0.00000000 0.0000 14.1335 0.0000
162 0 7 0.00000000 2.0400 17.6669 0.0000
163 0 7 0.00000000 2.0400 20.0225 3.3313
164 0 7 0.00000000 0.0000 16.4891 3.3313
165 0 7 0.00000000 4.0800 14.1335 0.0000
166 0 7 0.00000000 6.1200 17.6669 0.0000
167 0 7 0.00000000 6.1200 20.0225 3.3313
168 0 7 0.00000000 4.0800 16.4891 3.3313
169 0 7 0.00000000 8.1600 14.1335 0.0000
170 0 7 0.00000000 10.2000 17.6669 0.0000
171 0 7 0.00000000 10.2000 20.0225 3.3313
172 0 7 0.00000000 8.1600 16.4891 3.3313
173 0 7 0.00000000 12.2400 14.1335 0.0000
174 0 7 0.00000000 14.2800 17.6669 0.0000
175 0 7 0.00000000 14.2800 20.0225 3.3313
176 0 7 0.00000000 12.2400 16.4891 3.3313
177 0 7 0.00000000 16.3200 14.1335 0.0000
178 0 7 0.00000000 18.3600 17.6669 0.0000
179 0 7 0.00000000 18.3600 20.0225 3.3313
180 0 7 0.00000000 16.3200 16.4891 3.3313
181 0 7 0.00000000 20.4000 14.1335 0.0000
182 0 7 0.00000000 22.4400 17.6669 0.0000
183 0 7 0.00000000 22.4400 20.0225 3.3313
184 0 7 0.00000000 20.4000 16.4891 3.3313
185 0 7 0.00000000 24.4800 14.1335 0.0000
186 0 7 0.00000000 26.5200 17.6669 0.0000
187 0 7 0.00000000 26.5200 20.0225 3.3313
188 0 7 0.00000000 24.4800 16.4891 3.3313
189 0 7 0.00000000 28.5600 14.1335 0.0000
190 0 7 0.00000000 30.6000 17.6669 0.0000
191 0 7 0.00000000 30.6000 20.0225 3.3313
192 0 7 0.00000000 28.5600 16.4891 3.3313
193 0 7 0.00000000 32.6400 14.1335 0.0000
194 0 7 0.00000000 34.6800 17.6669 0.0000
195 0 7 0.00000000 34.6800 20.0225 3.3313
196 0 7 0.00000000 32.6400 16.4891 3.3313
197 0 7 0.00000000 36.7200 14.1335 0.0000
198 0 7 0.00000000 38.7600 17.6669 0.0000
199 0 7 0.00000000 38.7600 20.0225 3.3313
200 0 7 0.00000000 36.7200 16.4891 3.3313
201 0 7 0.00000000 40.8000 14.1335 0.0000
202 0 7 0.00000000 42.8400 17.6669 0.0000
203 0 7 0.00000000 42.8400 20.0225 3.3313
204 0 7 0.00000000 40.8000 16.4891 3.3313
205 0 7 0.00000000 44.8800 14.1335 0.0000
206 0 7 0.00000000 46.9200 17.6669 0.0000
207 0 7 0.00000000 46.9200 20.0225 3.3313
208 0 7 0.00000000 44.8800 16.4891 3.3313
209 0 7 0.00000000 48.9600 14.1335 0.0000
210 0 7 0.00000000 51.0000 17.6669 0.0000
211 0 7 0.00000000 51.0000 20.0225 3.3313
212 0 7 0.00000000 48.9600 16.4891 3.3313
213 0 7 0.00000000 53.0400 14.1335 0.0000
214 0 7 0.00000000 55.0800 17.6669 0.0000
215 0 7 0.00000000 55.0800 20.0225 3.3313
216 0 7 0.00000000 53.0400 16.4891 3.3313
217 0 7 0.00000000 57.1200 14.1335 0.0000
218 0 7 0.00000000 59.1600 17.6669 0.0000
219 0 7 0.00000000 59.1600 20.0225 3.3313
220 0 7 0.00000000 57.1200 16.4891 3.3313
221 0 7 0.00000000 61.2000 14.1335 0.0000
222 0 7 0.00000000 63.2400 17.6669 0.0000
223 0 7 0.00000000 63.2400 20.0225 3.3313
224 0 7 0.00000000 61.2000 16.4891 3.3313
225 0 7 0.00000000 65.2800 14.1335 0.0000
226 0 7 0.00000000 67.3200 17.6669 0.0000
227 0 7 0.00000000 67.3200 20.0225 3.3313
228 0 7 0.00000000 65.2800 16.4891 3.3313
229 0 7 0.00000000 69.3600 14.1335 0.0000
230 0 7 0.00000000 71.4000 17.6669 0.0000
231 0 7 0.00000000 71.4000 20.0225 3.3313
232 0 7 0.00000000 69.3600 16.4891 3.3313
233 0 7 0.00000000 73.4400 14.1335 0.0000
234 0 7 0.00000000 75.4800 17.6669 0.0000
235 0 7 0.00000000 75.4800 20.0225 3.3313
236 0 7 0.00000000 73.4400 16.4891 3.3313
237 0 7 0.00000000 77.5200 14.1335 0.0000
238 0 7 0.00000000 79.5600 17.6669 0.0000
239 0 7 0.00000000 79.5600 20.0225 3.3313
240 0 7 0.00000000 77.5200 16.4891 3.3313
241 0 7 0.00000000 0.0000 21.2003 0.0000
242 0 7 0.00000000 2.0400 24.7337 0.0000
243 0 7 0.00000000 2.0400 27.0893 3.3313
244 0 7 0.00000000 0.0000 23.5559 3.3313
245 0 7 0.00000000 4.0800 21.2003 0.0000
246 0 7 0.00000000 6.1200 24.7337 0.0000
247 0 7 0.00000000 6.1200 27.0893 3.3313
248 0 7 0.00000000 4.0800 23.5559 3.3313
249 0 7 0.00000000 8.1600 21.2003 0.0000
250 0 7 0.00000000 10.2000 24.7337 0.0000
251 0 7 0.00000000 10.2000 27.0893 3.3313
252 0 7 0.00000000 8.1600 23.5559 3.3313
253 0 7 0.00000000 12.2400 21.2003 0.0000
254 0 7 0.00000000 14.2800 24.7337 0.0000
255 0 7 0.00000000 14.2800 27.0893 3.3313
256 0 7 0.00000000 12.2400 23.5559 3.3313
257 0 7 0.00000000 16.3200 21.2003 0.0000
258 0 7 0.00000000 18.3600 24.7337 0.0000
259 0 7 0.00000000 18.3600 27.0893 3.3313
260 0 7 0.00000000 16.3200 23.5559 3.3313
261 0 7 0.00000000 20.4000 21.2003 0.0000
262 0 7 0.00000000 22.4400 24.7337 0.0000
263 0 7 0.00000000 22.4400 27.0893 3.3313
264 0 7 0.00000000 20.4000 23.5559 3.3313
265 0 7 0.00000000 24.4800 21.2003 0.0000
266 0 7 0.00000000 26.5200 24.7337 0.0000
267 0 7 0.00000000 26.5200 27.0893 3.3313
268 0 7 0.00000000 24.4800 23.5559 3.3313
269 0 7 0.00000000 28.5600 21.2003 0.0000
270 0 7 0.00000000 30.6000 24.7337 0.0000
271 0 7 0.00000000 30.6000 27.0893 3.3313
272 0 7 0.00000000 28.5600 23.5559 3.3313
273 0 7 0.00000000 32.6400 21.2003 0.0000
274 0 7 0.00000000 34.6800 24.7337 0.0000
275 0 7 0.00000000 34.6800 27.0893 3.3313
276 0 7 0.00000000 32.6400 23.5559 3.3313
277 0 7 0.00000000 36.7200 21.2003 0.0000
278 0 7 0.00000000 38.7600 24.7337 0.0000
279 0 7 0.00000000 38.7600 27.0893 3.3313
280 0 7 0.00000000 36.7200 23.5559 3.3313
281 0 7 0.00000000 40.8000 21.2003 0.0000
282 0 7 0.00000000 42.8400 24.7337 0.0000
283 0 7 0.00000000 42.8400 27.0893 3.3313
284 0 7 0.00000000 40.8000 23.5559 3.3313
285 0 7 0.00000000 44.8800 21.2003 0.0000
286 0 7 0.00000000 46.9200 24.7337 0.0000
287 0 7 0.00000000 46.9200 27.0893 3.3313
288 0 7 0.00000000 44.8800 23.5559 3.3313
289 0 7 0.00000000 48.9600 21.2003 0.0000
290 0 7 0.00000000 51.0000 24.7337 0.0000
291 0 7 0.00000000 51.0000 27.0893 3.3313
292 0 7 0.00000000 48.9600 23.5559 3.3313
293 0 7 0.00000000 53.0400 21.2003 0.0000
294 0 7 0.00000000 55.0800 24.7337 0.0000
295 0 7 0.00000000 55.0800 27.0893 3.3313
296 0 7 0.00000000 53.0400 23.5559 3.3313
297 0 7 0.00000000 57.1200 21.2003 0.0000
298 0 7 0.00000000 59.1600 24.7337 0.0000
299 0 7 0.00000000 59.1600 27.0893 3.3313
300 0 7 0.00000000 57.1200 23.5559 3.3313
301 0 7 0.00000000 61.2000 21.2003 0.0000
302 0 7 0.00000000 63.2400 24.7337 0.0000
303 0 7 0.00000000 63.2400 27.0893 3.3313
304 0 7 0.00000000 61.2000 23.5559 3.3313
305 0 7 0.00000000 65.2800 21.2003 0.0000
306 0 7 0.00000000 67.3200 24.7337 0.0000
307 0 7 0.00000000 67.3200 27.0893 3.3313
308 0 7 0.00000000 65.2800 23.5559 3.3313
309 0 7 0.00000000 69.3600 21.2003 0.0000
310 0 7 0.00000000 71.4000 24.7337 0.0000
311 0 7 0.00000000 71.4000 27.0893 3.3313
312 0 7 0.00000000 69.3600 23.5559 3.3313
313 0 7 0.00000000 73.4400 21.2003 0.0000
314 0 7 0.00000000 75.4800 24.7337 0.0000
315 0 7 0.00000000 75.4800 27.0893 3.3313
316 0 7 0.00000000 73.4400 23.5559 3.3313
317 0 7 0.00000000 77.5200 21.2003 0.0000
318 0 7 0.00000000 79.5600 24.7337 0.0000
319 0 7 0.00000000 79.5600 27.0893 3.3313
320 0 7 0.00000000 77.5200 23.5559 3.3313
321 0 7 0.00000000 0.0000 28.2671 0.0000
322 0 7 0.00000000 2.0400 31.8005 0.0000
323 0 7 0.00000000 2.0400 34.1560 3.3313
324 0 7 0.00000000 0.0000 30.6227 3.3313
325 0 7 0.00000000 4.0800 28.2671 0.0000
326 0 7 0.00000000 6.1200 31.8005 0.0000
327 0 7 0.00000000 6.1200 34.1560 3.3313
328 0 7 0.00000000 4.0800 30.6227 3.3313
329 0 7 0.00000000 8.1600 28.2671 0.0000
330 0 7 0.00000000 10.2000 31.8005 0.0000
331 0 7 0.00000000 10.2000 34.1560 3.3313
332 0 7 0.00000000 8.1600 30.6227 3.3313
333 0 7 0.00000000 12.2400 28.2671 0.0000
334 0 7 0.00000000 14.2800 31.8005 0.0000
335 0 7 0.00000000 14.2800 34.1560 3.3313
336 0 7 0.00000000 12.2400 30.6227 3.3313
337 0 7 0.00000000 16.3200 28.2671 0.0000
338 0 7 0.00000000 18.3600 31.8005 0.0000
339 0 7 0.00000000 18.3600 34.1560 3.3313
340 0 7 0.00000000 16.3200 30.6227 3.3313
341 0 7 0.00000000 20.4000 28.2671 0.0000
342 0 7 0.00000000 22.4400 31.8005 0.0000
343 0 7 0.00000000 22.4400 34.1560 3.3313
344 0 7 0.00000000 20.4000 30.6227 3.3313
345 0 7 0.00000000 24.4800 28.2671 0.0000
346 0 7 0.00000000 26.5200 31.8005 0.0000
347 0 7 0.00000000 26.5200 34.1560 3.3313
348 0 7 0.00000000 24.4800 30.6227 3.3313
349 0 7 0.00000000 28.5600 28.2671 0.0000
350 0 7 0.00000000 30.6000 31.8005 0.0000
351 0 7 0.00000000 30.6000 34.1560 3.3313
352 0 7 0.00000000 28.5600 30.6227 3.3313
353 0 7 0.00000000 32.6400 28.2671 0.0000
354 0 7 0.00000000 34.6800 31.8005 0.0000
355 0 7 0.00000000 34.6800 34.1560 3.3313
356 0 7 0.00000000 32.6400 30.6227 3.3313
357 0 7 0.00000000 36.7200 28.2671 0.0000
358 0 7 0.00000000 38.7600 31.8005 0.0000
359 0 7 0.00000000 38.7600 34.1560 3.3313
360 0 7 0.00000000 36.7200 30.6227 3.3313
361 0 7 0.00000000 40.8000 28.2671 0.0000
362 0 7 0.00000000 42.8400 31.8005 0.0000
363 0 7 0.00000000 42.8400 34.1560 3.3313
364 0 7 0.00000000 40.8000 30.6227 3.3313
365 0 7 0.00000000 44.8800 28.2671 0.0000
366 0 7 0.00000000 46.9200 31.8005 0.0000
367 0 7 0.00000000 46.9200 34.1560 3.3313
368 0 7 0.00000000 44.8800 30.6227 3.3313
369 0 7 0.00000000 48.9600 28.2671 0.0000
370 0 7 0.00000000 51.0000 31.8005 0.0000
371 0 7 0.00000000 51.0000 34.1560 3.3313
372 0 7 0.00000000 48.9600 30.6227 3.3313
373 0 7 0.00000000 53.0400 28.2671 0.0000
374 0 7 0.00000000 55.0800 31.8005 0.0000
375 0 7 0.00000000 55.0800 34.1560 3.3313
376 0 7 0.00000000 53.0400 30.6227 3.3313
377 0 7 0.00000000 57.1200 28.2671 0.0000
378 0 7 0.00000000 59.1600 31.8005 0.0000
379 0 7 0.00000000 59.1600 34.1560 3.3313
380 0 7 0.00000000 57.1200 30.6227 3.3313
381 0 7 0.00000000 61.2000 28.2671 0.0000
382 0 7 0.00000000 63.2400 31.8005 0.0000
383 0 7 0.00000000 63.2400 34.1560 3.3313
384 0 7 0.00000000 61.2000 30.6227 3.3313
385 0 7 0.00000000 65.2800 28.2671 0.0000
386 0 7 0.00000000 67.3200 31.8005 0.0000
387 0 7 0.00000000 67.3200 34.1560 3.3313
388 0 7 0.00000000 65.2800 30.6227 3.3313
389 0 7 0.00000000 69.3600 28.2671 0.0000
390 0 7 0.00000000 71.4000 31.8005 0.0000
391 0 7 0.00000000 71.4000 34.1560 3.3313
392 0 7 0.00000000 69.3600 30.6227 3.3313
393 0 7 0.00000000 73.4400 28.2671 0.0000
394 0 7 0.00000000 75.4800 31.8005 0.0000
395 0 7 0.00000000 75.4800 34.1560 3.3313
396 0 7 0.00000000 73.4400 30.6227 3.3313
397 0 7 0.00000000 77.5200 28.2671 0.0000
398 0 7 0.00000000 79.5600 31.8005 0.0000
399 0 7 0.00000000 79.5600 34.1560 3.3313
400 0 7 0.00000000 77.5200 30.6227 3.3313
401 0 7 0.00000000 0.0000 35.3338 0.0000
402 0 7 0.00000000 2.0400 38.8672 0.0000
403 0 7 0.00000000 2.0400 41.2228 3.3313
404 0 7 0.00000000 0.0000 37.6894 3.3313
405 0 7 0.00000000 4.0800 35.3338 0.0000
406 0 7 0.00000000 6.1200 38.8672 0.0000
407 0 7 0.00000000 6.1200 41.2228 3.3313
408 0 7 0.00000000 4.0800 37.6894 3.3313
409 0 7 0.00000000 8.1600 35.3338 0.0000
410 0 7 0.00000000 10.2000 38.8672 0.0000
411 0 7 0.00000000 10.2000 41.2228 3.3313
412 0 7 0.00000000 8.1600 37.6894 3.3313
413 0 7 0.00000000 12.2400 35.3338 0.0000
414 0 7 0.00000000 14.2800 38.8672 0.0000
415 0 7 0.00000000 14.2800 41.2228 3.3313
416 0 7 0.00000000 12.2400 37.6894 3.3313
417 0 7 0.00000000 16.3200 35.3338 0.0000
418 0 7 0.00000000 18.3600 38.8672 0.0000
419 0 7 0.00000000 18.3600 41.2228 3.3313
420 0 7 0.00000000 16.3200 37.6894 3.3313
421 0 7 0.00000000 20.4000 35.3338 0.0000
422 0 7 0.00000000 22.4400 38.8672 0.0000
423 0 7 0.00000000 22.4400 41.2228 3.3313
424 0 7 0.00000000 20.4000 37.6894 3.3313
425 0 7 0.00000000 24.4800 35.3338 0.0000
426 0 7 0.00000000 26.5200 38.8672 0.0000
427 0 7 0.00000000 26.5200 41.2228 3.3313
428 0 7 0.00000000 24.4800 37.6894 3.3313
429 0 7 0.00000000 28.5600 35.3338 0.0000
430 0 7 0.00000000 30.6000 38.8672 0.0000
431 0 7 0.00000000 30.6000 41.2228 3.3313
432 0 7 0.00000000 28.5600 37.6894 3.3313
433 0 7 0.00000000 32.6400 35.3338 0.0000
434 0 7 0.00000000 34.6800 38.8672 0.0000
435 0 7 0.00000000 34.6800 41.2228 3.3313
436 0 7 0.00000000 32.6400 37.6894 3.3313
437 0 7 0.00000000 36.7200 35.3338 0.0000
438 0 7 0.00000000 38.7600 38.8672 0.0000
439 0 7 0.00000000 38.7600 41.2228 3.3313
440 0 7 0.00000000 36.7200 37.6894 3.3313
441 0 7 0.00000000 40.8000 35.3338 0.0000
442 0 7 0.00000000 42.8400 38.8672 0.0000
443 0 7 0.00000000 42.8400 41.2228 3.3313
444 0 7 0.00000000 40.8000 37.6894 3.3313
445 0 7 0.00000000 44.8800 35.3338 0.0000
446 0 7 0.00000000 46.9200 38.8672 0.0000
447 0 7 0.00000000 46.9200 41.2228 3.3313
448 0 7 0.00000000 44.8800 37.6894 3.3313
449 0 7 0.00000000 48.9600 35.3338 0.0000
450 0 7 0.00000000 51.0000 38.8672 0.0000
451 0 7 0.00000000 51.0000 41.2228 3.3313
452 0 7 0.00000000 48.9600 37.6894 3.3313
453 0 7 0.00000000 53.0400 35.3338 0.0000
454 0 7 0.00000000 55.0800 38.8672 0.0000
455 0 7 0.00000000 55.0800 41.2228 3.3313
456 0 7 0.00000000 53.0400 37.6894 3.3313
457 0 7 0.00000000 57.1200 35.3338 0.0000
458 0 7 0.00000000 59.1600 38.8672 0.0000
459 0 7 0.00000000 59.1600 41.2228 3.3313
460 0 7 0.00000000 57.1200 37.6894 3.3313
461 0 7 0.00000000 61.2000 35.3338 0.0000
462 0 7 0.00000000 63.2400 38.8672 0.0000
463 0 7 0.00000000 63.2400 41.2228 3.3313
464 0 7 0.00000000 61.2000 37.6894 3.3313
465 0 7 0.00000000 65.2800 35.3338 0.0000
466 0 7 0.00000000 67.3200 38.8672 0.0000
467 0 7 0.00000000 67.3200 41.2228 3.3313
468 0 7 0.00000000 65.2800 37.6894 3.3313
469 0 7 0.00000000 69.3600 35.3338 0.0000
470 0 7 0.00000000 71.4000 38.8672 0.0000
471 0 7 0.00000000 71.4000 41.2228 3.3313
472 0 7 0.00000000 69.3600 37.6894 3.3313
473 0 7 0.00000000 73.4400 35.3338 0.0000
474 0 7 0.00000000 75.4800 38.8672 0.0000
475 0 7 0.00000000 75.4800 41.2228 3.3313
476 0 7 0.00000000 73.4400 37.6894 3.3313
477 0 7 0.00000000 77.5200 35.3338 0.0000
478 0 7 0.00000000 79.5600 38.8672 0.0000
479 0 7 0.00000000 79.5600 41.2228 3.3313
480 0 7 0.00000000 77.5200 37.6894 3.3313
481 0 7 0.00000000 0.0000 42.4006 0.0000
482 0 7 0.00000000 2.0400 45.9340 0.0000
483 0 7 0.00000000 2.0400 48.2896 3.3313
484 0 7 0.00000000 0.0000 44.7562 3.3313
485 0 7 0.00000000 4.0800 42.4006 0.0000
486 0 7 0.00000000 6.1200 45.9340 0.0000
487 0 7 0.00000000 6.1200 48.2896 3.3313
488 0 7 0.00000000 4.0800 44.7562 3.3313
489 0 7 0.00000000 8.1600 42.4006 0.0000
490 0 7 0.00000000 10.2000 45.9340 0.0000
491 0 7 0.00000000 10.2000 48.2896 3.3313
492 0 7 0.00000000 8.1600 44.7562 3.3313
493 0 7 0.00000000 12.2400 42.4006 0.0000
494 0 7 0.00000000 14.2800 45.9340 0.0000
495 0 7 0.00000000 14.2800 48.2896 3.3313
496 0 7 0.00000000 12.2400 44.7562 3.3313
497 0 7 0.00000000 16.3200 42.4006 0.0000
498 0 7 0.00000000 18.3600 45.9340 0.0000
499 0 7 0.00000000 18.3600 48.2896 3.3313
500 0 7 0.00000000 16.3200 44.7562 3.3313
501 0 7 0.00000000 20.4000 42.4006 0.0000
502 0 7 0.00000000 22.4400 45.9340 0.0000
503 0 7 0.00000000 22.4400 48.2896 3.3313
504 0 7 0.00000000 20.4000 44.7562 3.3313
505 0 7 0.00000000 24.4800 42.4006 0.0000
506 0 7 0.00000000 26.5200 45.9340 0.0000
507 0 7 0.00000000 26.5200 48.2896 3.3313
508 0 7 0.00000000 24.4800 44.7562 3.3313
509 0 7 0.00000000 28.5600 42.4006 0.0000
510 0 7 0.00000000 30.6000 45.9340 0.0000
511 0 7 0.00000000 30.6000 48.2896 3.3313
512 0 7 0.00000000 28.5600 44.7562 3.3313
513 0 7 0.00000000 32.6400 42.4006 0.0000
514 0 7 0.00000000 34.6800 45.9340 0.0000
515 0 7 0.00000000 34.6800 48.2896 3.3313
516 0 7 0.00000000 32.6400 44.7562 3.3313
517 0 7 0.00000000 36.7200 42.4006 0.0000
518 0 7 0.00000000 38.7600 45.9340 0.0000
519 0 7 0.00000000 38.7600 48.2896 3.3313
520 0 7 0.00000000 36.7200 44.7562 3.3313
521 0 7 0.00000000 40.8000 42.4006 0.0000
522 0 7 0.00000000 42.8400 45.9340 0.0000
523 0 7 0.00000000 42.8400 48.2896 3.3313
524 0 7 0.00000000 40.8000 44.7562 3.3313
525 0 7 0.00000000 44.8800 42.4006 0.0000
526 0 7 0.00000000 46.9200 45.9340 0.0000
527 0 7 0.00000000 46.9200 48.2896 3.3313
528 0 7 0.00000000 44.8800 44.7562 3.3313
529 0 7 0.00000000 48.9600 42.4006 0.0000
530 0 7 0.00000000 51.0000 45.9340 0.0000
531 0 7 0.00000000 51.0000 48.2896 3.3313
532 0 7 0.00000000 48.9600 44.7562 3.3313
533 0 7 0.00000000 53.0400 42.4006 0.0000
534 0 7 0.00000000 55.0800 45.9340 0.0000
535 0 7 0.00000000 55.0800 48.2896 3.3313
536 0 7 0.00000000 53.0400 44.7562 3.3313
537 0 7 0.00000000 57.1200 42.4006 0.0000
538 0 7 0.00000000 59.1600 45.9340 0.0000
539 0 7 0.00000000 59.1600 48.2896 3.3313
540 0 7 0.00000000 57.1200 44.7562 3.3313
541 0 7 0.00000000 61.2000 42.4006 0.0000
542 0 7 0.00000000 63.2400 45.9340 0.0000
543 0 7 0.00000000 63.2400 48.2896 3.3313
544 0 7 0.00000000 61.2000 44.7562 3.3313
545 0 7 0.00000000 65.2800 42.4006 0.0000
546 0 7 0.00000000 67.3200 45.9340 0.0000
547 0 7 0.00000000 67.3200 48.2896 3.3313
548 0 7 0.00000000 65.2800 44.7562 3.3313
549 0 7 0.00000000 69.3600 42.4006 0.0000
550 0 7 0.00000000 71.4000 45.9340 0.0000
551 0 7 0.00000000 71.4000 48.2896 3.3313
552 0 7 0.00000000 69.3600 44.7562 3.3313
553 0 7 0.00000000 73.4400 42.4006 0.0000
554 0 7 0.00000000 75.4800 45.9340 0.0000
555 0 7 0.00000000 75.4800 48.2896 3.3313
556 0 7 0.00000000 73.4400 44.7562 3.3313
557 0 7 0.00000000 77.5200 42.4006 0.0000
558 0 7 0.00000000 79.5600 45.9340 0.0000
559 0 7 0.00000000 79.5600 48.2896 3.3313
560 0 7 0.00000000 77.5200 44.7562 3.3313
561 0 7 0.00000000 0.0000 49.4674 0.0000
562 0 7 0.00000000 2.0400 53.0008 0.0000
563 0 7 0.00000000 2.0400 55.3563 3.3313
564 0 7 0.00000000 0.0000 51.8230 3.3313
565 0 7 0.00000000 4.0800 49.4674 0.0000
566 0 7 0.00000000 6.1200 53.0008 0.0000
567 0 7 0.00000000 6.1200 55.3563 3.3313
568 0 7 0.00000000 4.0800 51.8230 3.3313
569 0 7 0.00000000 8.1600 49.4674 0.0000
570 0 7 0.00000000 10.2000 53.0008 0.0000
571 0 7 0.00000000 10.2000 55.3563 3.3313
572 0 7 0.00000000 8.1600 51.8230 3.3313
573 0 7 0.00000000 12.2400 49.4674 0.0000
574 0 7 0.00000000 14.2800 53.0008 0.0000
575 0 7 0.00000000 14.2800 55.3563 3.3313
576 0 7 0.00000000 12.2400 51.8230 3.3313
577 0 7 0.00000000 16.3200 49.4674 0.0000
578 0 7 0.00000000 18.3600 53.0008 0.0000
579 0 7 0.00000000 18.3600 55.3563 3.3313
580 0 7 0.00000000 16.3200 51.8230 3.3313
581 0 7 0.00000000 20.4000 49.4674 0.0000
582 0 7 0.00000000 22.4400 53.0008 0.0000
583 0 7 0.00000000 22.4400 55.3563 3.3313
584 0 7 0.00000000 20.4000 51.8230 3.3313
585 0 7 0.00000000 24.4800 49.4674 0.0000
586 0 7 0.00000000 26.5200 53.0008 0.0000
587 0 7 0.00000000 26.5200 55.3563 3.3313
588 0 7 0.00000000 24.4800 51.8230 3.3313
589 0 7 0.00000000 28.5600 49.4674 0.0000
590 0 7 0.00000000 30.6000 53.0008 0.0000
591 0 7 0.00000000 30.6000 55.3563 3.3313
592 0 7 0.00000000 28.5600 51.8230 3.3313
593 0 7 0.00000000 32.6400 49.4674 0.0000
594 0 7 0.00000000 34.6800 53.0008 0.0000
595 0 7 0.00000000 34.6800 55.3563 3.3313
596 0 7 0.00000000 32.6400 51.8230 3.3313
597 0 7 0.00000000 36.7200 49.4674 0.0000
598 0 7 0.00000000 38.7600 53.0008 0.0000
599 0 7 0.00000000 38.7600 55.3563 3.3313
600 0 7 0.00000000 36.7200 51.8230 3.3313
601 0 7 0.00000000 40.8000 49.4674 0.0000
602 0 7 0.00000000 42.8400 53.0008 0.0000
603 0 7 0.00000000 42.8400 55.3563 3.3313
604 0 7 0.00000000 40.8000 51.8230 3.3313
605 0 7 0.00000000 44.8800 49.4674 0.0000
606 0 7 0.00000000 46.9200 53.0008 0.0000
607 0 7 0.00000000 46.9200 55.3563 3.3313
608 0 7 0.00000000 44.8800 51.8230 3.3313
609 0 7 0.00000000 48.9600 49.4674 0.0000
610 0 7 0.00000000 51.0000 53.0008 0.0000
611 0 7 0.00000000 51.0000 55.3563 3.3313
612 0 7 0.00000000 48.9600 51.8230 3.3313
613 0 7 0.00000000 53.0400 49.4674 0.0000
614 0 7 0.00000000 55.0800 53.0008 0.0000
615 0 7 0.00000000 55.0800 55.3563 3.3313
616 0 7 0.00000000 53.0400 51.8230 3.3313
617 0 7 0.00000000 57.1200 49.4674 0.0000
618 0 7 0.00000000 59.1600 53.0008 0.0000
619 0 7 0.00000000 59.1600 55.3563 3.3313
620 0 7 0.00000000 57.1200 51.8230 3.3313
621 0 7 0.00000000 61.2000 49.4674 0.0000
622 0 7 0.00000000 63.2400 53.0008 0.0000
623 0 7 0.00000000 63.2400 55.3563 3.3313
624 0 7 0.00000000 61.2000 51.8230 3.3313
625 0 7 0.00000000 65.2800 49.4674 0.0000
626 0 7 0.00000000 67.3200 53.0008 0.0000
627 0 7 0.00000000 67.3200 55.3563 3.3313
628 0 7 0.00000000 65.2800 51.8230 3.3313
629 0 7 0.00000000 69.3600 49.4674 0.0000
630 0 7 0.00000000 71.4000 53.0008 0.0000
631 0 7 0.00000000 71.4000 55.3563 3.3313
632 0 7 0.00000000 69.3600 51.8230 3.3313
633 0 7 0.00000000 73.4400 49.4674 0.0000
634 0 7 0.00000000 75.4800 53.0008 0.0000
635 0 7 0.00000000 75.4800 55.3563 3.3313
636 0 7 0.00000000 73.4400 51.8230 3.3313
637 0 7 0.00000000 77.5200 49.4674 0.0000
638 0 7 0.00000000 79.5600 53.0008 0.0000
639 0 7 0.00000000 79.5600 55.3563 3.3313
640 0 7 0.00000000 77.5200 51.8230 3.3313
641 0 7 0.00000000 0.0000 56.5341 0.0000
642 0 7 0.00000000 2.0400 60.0675 0.0000
643 0 7 0.00000000 2.0400 62.4231 3.3313
644 0 7 0.00000000 0.0000 58.8897 3.3313
645 0 7 0.00000000 4.0800 56.5341 0.0000
646 0 7 0.00000000 6.1200 60.0675 0.0000
647 0 7 0.00000000 6.1200 62.4231 3.3313
648 0 7 0.00000000 4.0800 58.8897 3.3313
649 0 7 0.00000000 8.1600 56.5341 0.0000
650 0 7 0.00000000 10.2000 60.0675 0.0000
651 0 7 0.00000000 10.2000 62.4231 3.3313
652 0 7 0.00000000 8.1600 58.8897 3.3313
653 0 7 0.00000000 12.2400 56.5341 0.0000
654 0 7 0.00000000 14.2800 60.0675 0.0000
655 0 7 0.00000000 14.2800 62.4231 3.3313
656 0 7 0.00000000 12.2400 58.8897 3.3313
657 0 7 0.00000000 16.3200 56.5341 0.0000
658 0 7 0.00000000 18.3600 60.0675 0.0000
659 0 7 0.00000000 18.3600 62.4231 3.3313
660 0 7 0.00000000 16.3200 58.8897 3.3313
661 0 7 0.00000000 20.4000 56.5341 0.0000
662 0 7 0.00000000 22.4400 60.0675 0.0000
663 0 7 0.00000000 22.4400 62.4231 3.3313
664 0 7 0.00000000 20.4000 58.8897 3.3313
665 0 7 0.00000000 24.4800 56.5341 0.0000
666 0 7 0.00000000 26.5200 60.0675 0.0000
667 0 7 0.00000000 26.5200 62.4231 3.3313
668 0 7 0.00000000 24.4800 58.8897 3.3313
669 0 7 0.00000000 28.5600 56.5341 0.0000
670 0 7 0.00000000 30.6000 60.0675 0.0000
671 0 7 0.00000000 30.6000 62.4231 3.3313
672 0 7 0.00000000 28.5600 58.8897 3.3313
673 0 7 0.00000000 32.6400 56.5341 0.0000
674 0 7 0.00000000 34.6800 60.0675 0.0000
675 0 7 0.00000000 34.6800 62.4231 3.3313
676 0 7 0.00000000 32.6400 58.8897 3.3313
677 0 7 0.00000000 36.7200 56.5341 0.0000
678 0 7 0.00000000 38.7600 60.0675 0.0000
679 0 7 0.00000000 38.7600 62.4231 3.3313
680 0 7 0.00000000 36.7200 58.8897 3.3313
681 0 7 0.00000000 40.8000 56.5341 0.0000
682 0 7 0.00000000 42.8400 60.0675 0.0000
683 0 7 0.00000000 42.8400 62.4231 3.3313
684 0 7 0.00000000 40.8000 58.8897 3.3313
685 0 7 0.00000000 44.8800 56.5341 0.0000
686 0 7 0.00000000 46.9200 60.0675 0.0000
687 0 7 0.00000000 46.9200 62.4231 3.3313
688 0 7 0.00000000 44.8800 58.8897 3.3313
689 0 7 0.00000000 48.9600 56.5341 0.0000
690 0 7 0.00000000 51.0000 60.0675 0.0000
691 0 7 0.00000000 51.0000 62.4231 3.3313
692 0 7 0.00000000 48.9600 58.8897 3.3313
693 0 7 0.00000000 53.0400 56.5341 0.0000
694 0 7 0.00000000 55.0800 60.0675 0.0000
695 0 7 0.00000000 55.0800 62.4231 3.3313
696 0 7 0.00000000 53.0400 58.8897 3.3313
697 0 7 0.00000000 57.1200 56.5341 0.0000
698 0 7 0.00000000 59.1600 60.0675 0.0000
699 0 7 0.00000000 59.1600 62.4231 3.3313
700 0 7 0.00000000 57.1200 58.8897 3.3313
701 0 7 0.00000000 61.2000 56.5341 0.0000
702 0 7 0.00000000 63.2400 60.0675 0.0000