LAMMPS (31 Mar 2017)
  using 1 OpenMP thread(s) per MPI task
Reading data file ...
  orthogonal box = (0 0 0) to (81.6 70.667 100)
  4 by 3 by 1 MPI processor grid
  reading atoms ...
  4272 atoms
  scanning bonds ...
  1 = max bonds/atom
  scanning angles ...
  6 = max angles/atom
  scanning dihedrals ...
  9 = max dihedrals/atom
  reading bonds ...
  2816 bonds
  reading angles ...
  4864 angles
  reading dihedrals ...
  3840 dihedrals
Finding 1-2 1-3 1-4 neighbors ...
  special bond factors lj:   0          0          0.5       
  special bond factors coul: 0          0          0.5       
  4 = max # of 1-2 neighbors
  6 = max # of 1-3 neighbors
  9 = max # of 1-4 neighbors
  11 = max # of special neighbors
1200 atoms in group gold
256 atoms in group thiol
3072 atoms in group dynamic
Ewald initialization ...
WARNING: System is not charge neutral, net charge = 1.024e-05 (../kspace.cpp:302)
WARNING: Using 12-bit tables for long-range coulomb (../kspace.cpp:321)
  G vector (1/distance) = 0.112517
  estimated absolute RMS force accuracy = 0.0417508
  estimated relative force accuracy = 0.000125731
  KSpace vectors: actual max1d max3d = 215 5 665
                  kxmax kymax kzmax  = 4 4 5
Neighbor list info ...
  update every 1 steps, delay 0 steps, check yes
  max neighbors/atom: 30000, page size: 300000
  master list distance cutoff = 22
  ghost atom cutoff = 22
  binsize = 11, bins = 8 7 10
  3 neighbor lists, perpetual/occasional/extra = 3 0 0
  (1) pair lj/cut/coul/long, perpetual, skip from (3)
      attributes: half, newton on
      pair build: skip
      stencil: none
      bin: none
  (2) pair morse, perpetual, skip from (3)
      attributes: half, newton on
      pair build: skip
      stencil: none
      bin: none
  (3) neighbor class addition, perpetual
      attributes: half, newton on
      pair build: half/bin/newton
      stencil: half/bin/3d/newton
      bin: standard
Setting up cg style minimization ...
  Unit style    : real
Per MPI rank memory allocation (min/avg/max) = 23.83 | 23.83 | 23.84 Mbytes
Step Temp Press KinEng PotEng TotEng Density 
       0            0 1.183066e+14            0 2.4873201e+14 2.4873201e+14   0.74780884 
     100            0    5660.9737            0    19412.318    19412.318   0.74780884 
Loop time of 0.398065 on 12 procs for 100 steps with 4272 atoms

95.8% CPU use with 12 MPI tasks x 1 OpenMP threads

Minimization stats:
  Stopping criterion = max iterations
  Energy initial, next-to-last, final = 
     2.48732014283e+14      19687.1882612      19412.3176855
  Force two-norm initial, final = 9.96588e+15 463.568
  Force max component initial, final = 7.59102e+15 206.205
  Final line search alpha, max atom move = 0.00132419 0.273054
  Iterations, force evaluations = 100 115

MPI task timing breakdown:
Section |  min time  |  avg time  |  max time  |%varavg| %total
---------------------------------------------------------------
Pair    | 0.25772    | 0.28756    | 0.31502    |   3.0 | 72.24
Bond    | 0.011938   | 0.013429   | 0.015225   |   0.9 |  3.37
Kspace  | 0.054819   | 0.082608   | 0.1123     |   5.4 | 20.75
Neigh   | 0          | 0          | 0          |   0.0 |  0.00
Comm    | 0.0073326  | 0.0091546  | 0.011442   |   1.6 |  2.30
Output  | 3.2902e-05 | 3.9796e-05 | 0.00011086 |   0.0 |  0.01
Modify  | 8.3685e-05 | 0.00011508 | 0.00014853 |   0.0 |  0.03
Other   |            | 0.005157   |            |       |  1.30

Nlocal:    356 ave 373 max 335 min
Histogram: 4 0 0 0 0 0 4 0 0 4
Nghost:    2862 ave 2894 max 2829 min
Histogram: 1 2 1 0 1 2 1 1 2 1
Neighs:    187220 ave 198192 max 172807 min
Histogram: 2 2 0 0 0 1 1 2 1 3

Total # of neighbors = 2246636
Ave neighs/atom = 525.898
Ave special neighs/atom = 5.39326
Neighbor list builds = 0
Dangerous builds = 0
Ewald initialization ...
WARNING: Using 12-bit tables for long-range coulomb (../kspace.cpp:321)
  G vector (1/distance) = 0.112517
  estimated absolute RMS force accuracy = 0.0417508
  estimated relative force accuracy = 0.000125731
  KSpace vectors: actual max1d max3d = 215 5 665
                  kxmax kymax kzmax  = 4 4 5
Setting up Verlet run ...
  Unit style    : real
  Current step  : 100
  Time step     : 1
Per MPI rank memory allocation (min/avg/max) = 22.72 | 22.72 | 22.73 Mbytes
Step Temp Press KinEng PotEng TotEng Density 
     100            0    5660.9737            0    19412.318    19412.318   0.74780884 
     200    141.09443    9126.2601    1796.2788    24079.342    25875.621   0.74780884 
     300    100.09091    5827.1487    1274.2614    8796.9812    10071.243   0.74780884 
     400     71.51473    4345.0304    910.45687    2483.6794    3394.1362   0.74780884 
     500    49.000742    3461.1947    623.83039   -397.19381    226.63658   0.74780884 
     600    31.108075    3009.7206    396.03814   -1792.5162   -1396.4781   0.74780884 
     700    23.089629    2701.7886    293.95499   -2502.6106   -2208.6556   0.74780884 
     800    16.243383    2489.6509    206.79515   -2973.7615   -2766.9664   0.74780884 
     900      10.9524    2354.4495    139.43543   -3286.1132   -3146.6777   0.74780884 
    1000    8.2272181    2252.8398    104.74104   -3494.2387   -3389.4976   0.74780884 
    1100       7.1176    2180.0564    90.614448   -3665.0753   -3574.4608   0.74780884 
    1200    6.1140465     2125.135    77.838169    -3796.838   -3718.9999   0.74780884 
    1300     6.142128    2060.7688    78.195675   -3929.6488   -3851.4531   0.74780884 
    1400    5.6586331    2016.9065    72.040282   -4039.9602   -3967.9199   0.74780884 
    1500    5.3309746    1967.9268    67.868849   -4123.8328    -4055.964   0.74780884 
    1600    5.5807876    1927.5183    71.049229   -4215.6855   -4144.6362   0.74780884 
    1700     5.795386    1903.7538    73.781289   -4304.6054   -4230.8241   0.74780884 
    1800    5.3864173    1877.2955    68.574692   -4376.5461   -4307.9714   0.74780884 
    1900    5.3059807    1834.8516     67.55065     -4440.19   -4372.6394   0.74780884 
    2000    5.5053463    1808.8667    70.088782   -4505.5802   -4435.4914   0.74780884 
    2100    5.7086553     1779.116    72.677117   -4572.4555   -4499.7784   0.74780884 
    2200     5.951836    1734.5197     75.77306   -4631.4226   -4555.6495   0.74780884 
    2300    5.8165906    1707.6954    74.051246   -4685.7952    -4611.744   0.74780884 
    2400    6.1207553    1698.2744    77.923579   -4738.6834   -4660.7598   0.74780884 
    2500    6.2753189    1673.6971    79.891334   -4790.0494    -4710.158   0.74780884 
    2600    6.2304385    1643.5619     79.31996   -4839.8338   -4760.5138   0.74780884 
    2700    6.2741961    1609.5602     79.87704   -4884.3004   -4804.4234   0.74780884 
    2800    6.6488963    1595.8341    84.647363    -4927.794   -4843.1467   0.74780884 
    2900    6.8613407    1577.7249    87.352001   -4973.6521   -4886.3001   0.74780884 
    3000    6.6746662    1556.7423    84.975441   -5011.7466   -4926.7712   0.74780884 
    3100     6.607386    1534.4766    84.118894   -5040.7563   -4956.6374   0.74780884 
    3200    6.7853729    1514.7595    86.384852   -5072.0298    -4985.645   0.74780884 
    3300    6.8109282    1500.7417    86.710197   -5095.2587   -5008.5485   0.74780884 
    3400    6.9427612    1483.3746    88.388569   -5114.5528   -5026.1643   0.74780884 
    3500    7.2643691    1473.2469    92.482972   -5134.1717   -5041.6887   0.74780884 
    3600    7.3194096    1451.6231    93.183694   -5156.4141   -5063.2304   0.74780884 
    3700    7.6469095    1432.6107    97.353109   -5185.7501   -5088.3969   0.74780884 
    3800    7.8246285       1420.5    99.615657   -5214.6335   -5115.0179   0.74780884 
    3900     7.722789    1404.6439    98.319133   -5234.1524   -5135.8333   0.74780884 
    4000    7.6906792    1409.2639    97.910342   -5250.1148   -5152.2045   0.74780884 
    4100    7.8127686    1392.1953    99.464667   -5262.9785   -5163.5138   0.74780884 
    4200    8.1882902    1382.2047    104.24545   -5280.2627   -5176.0173   0.74780884 
    4300    8.3072901    1358.2695    105.76044   -5296.5204     -5190.76   0.74780884 
    4400    8.4054633     1358.184    107.01029   -5311.8682   -5204.8579   0.74780884 
    4500    8.7210381    1344.2779    111.02788   -5330.1889    -5219.161   0.74780884 
    4600     8.874645    1336.8758    112.98346   -5349.1266   -5236.1432   0.74780884 
    4700    9.0026031    1333.1911     114.6125   -5369.6751   -5255.0626   0.74780884 
    4800    8.9074416    1302.5456    113.40099   -5391.5007   -5278.0998   0.74780884 
    4900    9.2428472      1300.14    117.67105   -5407.4613   -5289.7902   0.74780884 
    5000    9.1233719    1293.7291    116.15001   -5416.3747   -5300.2246   0.74780884 
    5100     9.394819    1271.7713    119.60581   -5435.3041   -5315.6983   0.74780884 
    5200    9.3885188    1259.1618    119.52561   -5444.0437   -5324.5181   0.74780884 
    5300    9.4118895     1244.692    119.82314   -5456.1022   -5336.2791   0.74780884 
    5400    9.7967894    1248.4421    124.72332   -5467.5806   -5342.8573   0.74780884 
    5500    10.202538    1240.4417    129.88892   -5482.1613   -5352.2724   0.74780884 
    5600    10.112034    1248.4008     128.7367   -5493.0956   -5364.3589   0.74780884 
    5700    10.122904    1218.7401     128.8751   -5505.7472   -5376.8721   0.74780884 
    5800     9.963586    1193.1986    126.84681   -5513.3236   -5386.4768   0.74780884 
    5900    10.240178    1188.4683    130.36811   -5529.3535   -5398.9854   0.74780884 
    6000    10.444064    1198.8051     132.9638   -5541.3498    -5408.386   0.74780884 
    6100    10.580647    1193.6401    134.70264   -5551.8824   -5417.1798   0.74780884 
    6200    10.616032    1191.8117    135.15313   -5566.9794   -5431.8263   0.74780884 
    6300    10.593962    1173.6311    134.87215   -5576.0682   -5441.1961   0.74780884 
    6400    10.651301    1169.9853    135.60214   -5587.5183   -5451.9162   0.74780884 
    6500    10.836801     1150.276    137.96374   -5597.0455   -5459.0817   0.74780884 
    6600    10.816701    1143.0482    137.70785   -5606.3893   -5468.6815   0.74780884 
    6700    11.220141    1133.5156    142.84405   -5617.8577   -5475.0136   0.74780884 
    6800       11.203    1116.7768    142.62584   -5625.1314   -5482.5056   0.74780884 
    6900    11.091952    1107.3617    141.21208   -5636.8938   -5495.6818   0.74780884 
    7000    11.381815    1104.7867    144.90234    -5644.368   -5499.4657   0.74780884 
    7100    11.449884    1106.0383    145.76893   -5656.9631   -5511.1942   0.74780884 
    7200    11.497589     1107.532    146.37626   -5667.4481   -5521.0718   0.74780884 
    7300    11.509196    1082.4447    146.52403   -5673.9944   -5527.4704   0.74780884 
    7400    11.477711    1089.4973     146.1232    -5687.137   -5541.0138   0.74780884 
    7500    11.920001    1090.1625    151.75401   -5696.9096   -5545.1556   0.74780884 
    7600    11.557198    1054.1647    147.13515   -5707.9386   -5560.8035   0.74780884 
    7700     11.77901     1067.069    149.95904   -5712.5909   -5562.6319   0.74780884 
    7800    11.878943    1046.5344    151.23129   -5721.3758   -5570.1445   0.74780884 
    7900    11.781806    1050.4853    149.99463    -5726.047   -5576.0524   0.74780884 
    8000    12.021458    1037.7647    153.04566   -5731.2365   -5578.1908   0.74780884 
    8100    12.115734    1038.3337    154.24589   -5736.7586   -5582.5127   0.74780884 
    8200    12.422437    1058.0897    158.15054   -5743.7652   -5585.6147   0.74780884 
    8300    12.411233     1027.105     158.0079   -5754.0036   -5595.9957   0.74780884 
    8400    12.566413    1022.0315     159.9835   -5762.4837   -5602.5002   0.74780884 
    8500     12.72718    998.71748    162.03023   -5764.9582   -5602.9279   0.74780884 
    8600    12.369175    986.71601    157.47246   -5771.6215    -5614.149   0.74780884 
    8700    12.613136    1001.4121    160.57834   -5783.2556   -5622.6773   0.74780884 
    8800    12.711497     996.1887    161.83057    -5792.657   -5630.8265   0.74780884 
    8900    12.665966    977.07828    161.25091   -5801.1605   -5639.9096   0.74780884 
    9000    12.957677    984.16308     164.9647   -5810.4428   -5645.4781   0.74780884 
    9100    13.041228    986.52724    166.02839   -5823.3889   -5657.3605   0.74780884 
    9200    12.884984    979.79182    164.03924   -5823.1613   -5659.1221   0.74780884 
    9300    13.428484    970.42274    170.95856    -5835.643   -5664.6844   0.74780884 
    9400    13.214853    956.37988    168.23882   -5839.5416   -5671.3027   0.74780884 
    9500    13.625075    959.80591    173.46138   -5844.9247   -5671.4634   0.74780884 
    9600    13.533315    949.34644    172.29318   -5848.9763   -5676.6831   0.74780884 
    9700    13.712597     942.6862    174.57561   -5855.2726   -5680.6969   0.74780884 
    9800    13.526538    922.59538    172.20689   -5859.3241   -5687.1172   0.74780884 
    9900    13.946796    947.77411    177.55721   -5867.8992    -5690.342   0.74780884 
   10000    13.581347    929.65001    172.90467   -5874.6024   -5701.6977   0.74780884 
   10100    14.121312    916.12419    179.77898   -5883.2631   -5703.4841   0.74780884 
   10200    13.775736    907.74373    175.37944    -5880.204   -5704.8245   0.74780884 
   10300    13.789672    920.62043    175.55686   -5889.9435   -5714.3866   0.74780884 
   10400    14.207933    902.90322    180.88176   -5900.6554   -5719.7736   0.74780884 
   10500    14.281305    889.13976    181.81586   -5912.2724   -5730.4565   0.74780884 
   10600    14.480273    890.64411    184.34893   -5919.8207   -5735.4718   0.74780884 
   10700    14.129001     868.0399    179.87687   -5957.1335   -5777.2566   0.74780884 
   10800    14.440396    888.00638    183.84125   -5977.3576   -5793.5164   0.74780884 
   10900    14.251902    900.51427    181.44153   -5992.9767   -5811.5352   0.74780884 
   11000    14.641481    882.32284    186.40127   -5998.7502   -5812.3489   0.74780884 
   11100    14.404592    869.64056    183.38543    -6004.359   -5820.9735   0.74780884 
   11200    14.940462    847.41017    190.20762   -6017.4751   -5827.2674   0.74780884 
   11300    14.433923    866.78243    183.75885   -6017.9598   -5834.2009   0.74780884 
   11400    15.104108    854.68079      192.291   -6025.8012   -5833.5102   0.74780884 
   11500    14.937721    848.01566    190.17272   -6036.8408   -5846.6681   0.74780884 
   11600    14.631974    857.98107    186.28025   -6042.2295   -5855.9493   0.74780884 
   11700    14.428587    830.56125    183.69091   -6050.0018   -5866.3109   0.74780884 
   11800    14.791894    836.28966    188.31619   -6053.8383   -5865.5221   0.74780884 
   11900     15.09321    845.21551    192.15226   -6056.1723     -5864.02   0.74780884 
   12000    15.349982    859.72372    195.42123   -6063.5618   -5868.1406   0.74780884 
   12100    15.060165    839.37514    191.73156    -6065.688   -5873.9565   0.74780884 
   12200    15.519974    848.24595     197.5854   -6075.9954     -5878.41   0.74780884 
   12300    15.450468    818.00346    196.70052   -6078.3873   -5881.6868   0.74780884 
   12400    15.470357    824.46892    196.95373   -6083.4943   -5886.5405   0.74780884 
   12500    15.237459    815.21768     193.9887   -6087.6916   -5893.7029   0.74780884 
   12600    15.575443    797.27408    198.29158   -6096.8063   -5898.5147   0.74780884 
   12700      15.4979    797.95886    197.30439   -6093.6952   -5896.3908   0.74780884 
   12800    15.682641    792.51675    199.65632   -6097.7812   -5898.1249   0.74780884 
   12900    15.382219    769.48872    195.83163   -6106.3285   -5910.4969   0.74780884 
   13000    15.398137    779.88603    196.03429   -6107.0757   -5911.0415   0.74780884 
   13100    15.518115    766.30224    197.56173   -6108.7688    -5911.207   0.74780884 
   13200    15.848795    796.13626    201.77164   -6115.2549   -5913.4832   0.74780884 
   13300    15.794854    779.34015    201.08492   -6121.8589    -5920.774   0.74780884 
   13400    15.861925    760.75094    201.93879   -6135.6405   -5933.7017   0.74780884 
   13500     15.90248    773.42457     202.4551   -6133.3932   -5930.9381   0.74780884 
   13600    16.174297    751.19541    205.91562   -6147.6698   -5941.7541   0.74780884 
   13700    16.434487     737.2755    209.22811   -6146.1797   -5936.9516   0.74780884 
   13800    16.038489    743.41267    204.18665   -6154.3277   -5950.1411   0.74780884 
   13900     16.31896    748.91177    207.75733   -6162.0334   -5954.2761   0.74780884 
   14000    16.199235    760.02294    206.23311   -6166.3379   -5960.1048   0.74780884 
   14100     16.52107    712.22609     210.3304   -6167.7169   -5957.3865   0.74780884 
   14200    16.346373    732.42273    208.10633   -6172.8931   -5964.7868   0.74780884 
   14300    16.198641     714.8772    206.22554   -6183.9693   -5977.7438   0.74780884 
   14400     16.60554     701.1358    211.40579    -6187.872   -5976.4662   0.74780884 
   14500    16.884742    723.91041    214.96032   -6185.7389   -5970.7785   0.74780884 
   14600    16.830517    731.92138    214.26998   -6196.8605   -5982.5905   0.74780884 
   14700    17.129733    742.26206    218.07931   -6202.7289   -5984.6496   0.74780884 
   14800    16.945644    703.39054    215.73567   -6207.1673   -5991.4316   0.74780884 
   14900    17.048826    673.90054    217.04928   -6212.3122   -5995.2629   0.74780884 
   15000    16.818577    697.08228    214.11797   -6210.9283   -5996.8103   0.74780884 
   15100    17.059902    697.16324    217.19029   -6219.2277   -6002.0374   0.74780884 
   15200    17.051899    696.60808     217.0884   -6225.5501   -6008.4617   0.74780884 
   15300    16.780204    678.90044    213.62945   -6233.1521   -6019.5227   0.74780884 
   15400    16.867493     676.3051    214.74072   -6229.7567    -6015.016   0.74780884 
   15500    17.051766    663.22772    217.08671   -6240.4953   -6023.4086   0.74780884 
   15600    17.072168    679.01378    217.34645   -6241.9924   -6024.6459   0.74780884 
   15700    17.339857    663.51767    220.75441   -6249.2464    -6028.492   0.74780884 
   15800    17.355466    654.66072    220.95312   -6252.7815   -6031.8284   0.74780884 
   15900    17.289853    652.24018     220.1178   -6260.6727   -6040.5549   0.74780884 
   16000    17.596717    669.33113    224.02451   -6271.9309   -6047.9064   0.74780884 
   16100    17.319976    670.29639     220.5013    -6272.512   -6052.0108   0.74780884 
   16200    17.116242    690.21305    217.90756   -6273.7008   -6055.7932   0.74780884 
   16300     17.71178    673.36084    225.48938   -6278.9071   -6053.4178   0.74780884 
   16400    17.486101    660.27938    222.61625   -6279.8163      -6057.2   0.74780884 
   16500    17.773941     625.4648    226.28075   -6282.7113   -6056.4305   0.74780884 
   16600    17.987014    643.58598    228.99338   -6283.5122   -6054.5188   0.74780884 
   16700    18.016562    641.07264    229.36957    -6285.737   -6056.3675   0.74780884 
   16800      17.9512    641.92387    228.53744    -6293.546   -6065.0085   0.74780884 
   16900    18.256059    636.42717    232.41861   -6299.4582   -6067.0396   0.74780884 
   17000    18.307377    619.44619    233.07194    -6299.035   -6065.9631   0.74780884 
   17100    17.965168    636.09883    228.71527   -6303.0688   -6074.3536   0.74780884 
   17200    17.864931     649.7305    227.43915    -6306.437   -6078.9979   0.74780884 
   17300    18.488546    626.16177    235.37842   -6317.1597   -6081.7813   0.74780884 
   17400    18.281902    629.35594    232.74763   -6316.9342   -6084.1866   0.74780884 
   17500    18.350375    618.47055    233.61935   -6312.8492   -6079.2298   0.74780884 
   17600    18.419129     620.8727    234.49466   -6323.0647     -6088.57   0.74780884 
   17700    18.518475    612.10104    235.75944   -6327.7039   -6091.9445   0.74780884 
   17800    18.609967    601.16446    236.92423   -6331.8883   -6094.9641   0.74780884 
   17900    18.867288     618.3375    240.20019   -6339.0159   -6098.8157   0.74780884 
   18000    18.348726    586.25854    233.59835   -6344.3025   -6110.7041   0.74780884 
   18100    18.595166    619.35952     236.7358   -6341.9565   -6105.2207   0.74780884 
   18200    19.077179    603.27437    242.87233   -6343.3714    -6100.499   0.74780884 
   18300     18.53424    599.09088    235.96014   -6350.3551   -6114.3949   0.74780884 
   18400    18.253158     588.2198    232.38169   -6361.9297    -6129.548   0.74780884 
   18500    17.996485    592.15887    229.11397   -6361.1916   -6132.0776   0.74780884 
   18600    18.356184    592.23035    233.69331   -6363.8185   -6130.1252   0.74780884 
   18700    19.089081    590.13764    243.02384   -6368.1678   -6125.1439   0.74780884 
   18800    18.860028    584.12924    240.10777   -6371.5353   -6131.4275   0.74780884 
   18900    18.702995    572.97205    238.10858   -6368.6721   -6130.5636   0.74780884 
   19000    18.858502    555.73417    240.08833   -6383.6718   -6143.5835   0.74780884 
   19100    19.471519    571.33864    247.89268   -6381.5828   -6133.6901   0.74780884 
   19200    19.631687    588.04959    249.93178   -6389.1912   -6139.2594   0.74780884 
   19300    19.570966    558.38762    249.15874   -6389.4392   -6140.2805   0.74780884 
   19400    19.594939    567.83034    249.46395   -6396.1588   -6146.6948   0.74780884 
   19500    19.495903    541.35082    248.20312   -6406.7715   -6158.5684   0.74780884 
   19600    18.942787    562.64178    241.16137   -6408.0364    -6166.875   0.74780884 
   19700    19.438055    539.86672    247.46666   -6413.6226    -6166.156   0.74780884 
   19800    19.778557    556.04067    251.80159   -6416.1687   -6164.3671   0.74780884 
   19900    19.502714    528.08749    248.28982   -6430.9645   -6182.6747   0.74780884 
   20000    19.401948    545.15889    247.00697   -6429.6202   -6182.6133   0.74780884 
   20100    19.911277     536.9578    253.49125   -6440.3656   -6186.8744   0.74780884 
   20200     19.97198      537.234    254.26407   -6449.7788   -6195.5147   0.74780884 
   20300    19.971591    556.78762    254.25912   -6456.5697   -6202.3106   0.74780884 
   20400    20.184023    528.86103     256.9636   -6459.4044   -6202.4408   0.74780884 
   20500    19.728858    523.61653    251.16887   -6463.6562   -6212.4874   0.74780884 
   20600     19.45564     553.0456    247.69053   -6469.1075    -6221.417   0.74780884 
   20700    19.680191    555.83432     250.5493   -6470.0485   -6219.4992   0.74780884 
   20800    20.218704    519.37331    257.40512   -6477.5384   -6220.1333   0.74780884 
   20900    20.027092    525.04091     254.9657   -6480.0535   -6225.0878   0.74780884 
   21000    20.163003    551.10367    256.69599   -6479.1864   -6222.4904   0.74780884 
   21100    20.376783    519.62812    259.41763   -6482.7008   -6223.2832   0.74780884 
   21200    20.462516    519.56274    260.50911   -6489.1613   -6228.6522   0.74780884 
   21300    20.575267    527.41587    261.94454   -6490.0393   -6228.0948   0.74780884 
   21400    20.140056    513.66535    256.40385   -6499.9906   -6243.5867   0.74780884 
   21500    20.466449    509.15299    260.55918    -6501.269   -6240.7099   0.74780884 
   21600    20.908721    536.84301    266.18976   -6505.3683   -6239.1785   0.74780884 
   21700    20.436518     513.1842    260.17812   -6506.4934   -6246.3152   0.74780884 
   21800    21.044558    513.98169    267.91911   -6510.8825   -6242.9634   0.74780884 
   21900    20.635702    499.10441    262.71394   -6509.8122   -6247.0983   0.74780884 
   22000    20.496811    487.89893    260.94572   -6518.1621   -6257.2164   0.74780884 
   22100    20.808575    502.59032     264.9148   -6526.8044   -6261.8896   0.74780884 
   22200    20.750042    512.39453     264.1696   -6529.2985   -6265.1289   0.74780884 
   22300    20.823552    504.65407    265.10547   -6526.5858   -6261.4803   0.74780884 
   22400    20.485969     512.1476    260.80769   -6541.8325   -6281.0248   0.74780884 
   22500    20.856463    512.69498    265.52446   -6523.8822   -6258.3577   0.74780884 
   22600    21.160026    497.83607    269.38913   -6535.7418   -6266.3526   0.74780884 
   22700    21.304986    478.99966    271.23462   -6527.3377   -6256.1031   0.74780884 
   22800    21.061911    483.85801    268.14002   -6536.2195   -6268.0795   0.74780884 
   22900    20.315383    476.42552    258.63595   -6542.9881   -6284.3522   0.74780884 
   23000    21.019086    458.61039    267.59482   -6545.4198    -6277.825   0.74780884 
   23100     21.66569    481.31755    275.82676   -6543.7389   -6267.9122   0.74780884 
   23200    21.217687    482.93009    270.12322   -6540.7552    -6270.632   0.74780884 
   23300     21.03023    464.62998    267.73669   -6535.8851   -6268.1484   0.74780884 
   23400    21.411979    468.63016    272.59676   -6544.3724   -6271.7756   0.74780884 
   23500    21.194459    441.43869     269.8275   -6544.8941   -6275.0666   0.74780884 
   23600    21.006598    470.48189    267.43583   -6549.1732   -6281.7374   0.74780884 
   23700    21.328464    451.14218    271.53352   -6550.1589   -6278.6254   0.74780884 
   23800    20.800971    480.97028    264.81799   -6551.0691   -6286.2511   0.74780884 
   23900    21.200328    477.55322    269.90222   -6558.5537   -6288.6514   0.74780884 
   24000    20.727599    451.54629    263.88389    -6557.222   -6293.3382   0.74780884 
   24100    20.958923    459.37749    266.82889   -6559.4084   -6292.5795   0.74780884 
   24200    21.542065    457.80894    274.25288   -6557.5089    -6283.256   0.74780884 
   24300    22.102537    475.16972    281.38828   -6562.8789   -6281.4906   0.74780884 
   24400    21.659489    462.29598    275.74782   -6568.6847   -6292.9369   0.74780884 
   24500    21.600696    487.25899    274.99931   -6564.2402   -6289.2409   0.74780884 
   24600    21.514317    455.23089    273.89962   -6576.6826   -6302.7829   0.74780884 
   24700    22.051609    433.47621    280.73991   -6572.8157   -6292.0758   0.74780884 
   24800    22.053793    439.23988    280.76772   -6579.7407   -6298.9729   0.74780884 
   24900    21.734533    428.07512     276.7032    -6588.578   -6311.8748   0.74780884 
   25000    22.065381    442.09625    280.91524   -6587.2533   -6306.3381   0.74780884 
   25100    21.658344    436.01208    275.73324    -6585.387   -6309.6538   0.74780884 
   25200     22.38456    444.19347    284.97872   -6582.8692   -6297.8905   0.74780884 
   25300    22.569248    447.14023    287.32999   -6593.7499   -6306.4199   0.74780884 
   25400    21.790113     450.2762     277.4108   -6584.8291   -6307.4183   0.74780884 
   25500    22.477881    425.41849     286.1668   -6592.6118    -6306.445   0.74780884 
   25600    22.361712    446.34252    284.68785   -6592.4082   -6307.7203   0.74780884 
   25700    21.870983    463.73702    278.44035   -6588.4314    -6309.991   0.74780884 
   25800     22.24321    396.88686    283.17919    -6603.958   -6320.7788   0.74780884 
   25900    22.341039    415.38968    284.42466   -6609.7694   -6325.3447   0.74780884 
   26000    22.737483    432.07028     289.4718   -6600.6151   -6311.1433   0.74780884 
   26100     22.34907    415.37565    284.52689   -6608.7691   -6324.2422   0.74780884 
   26200    22.901792    408.59571    291.56362   -6613.2033   -6321.6397   0.74780884 
   26300    21.658174    434.88775    275.73107   -6608.5943   -6332.8632   0.74780884 
   26400    22.928584    413.48426    291.90471    -6607.717   -6315.8123   0.74780884 
   26500    22.978583     406.3574    292.54126   -6614.7654   -6322.2241   0.74780884 
   26600    22.389256    385.75942    285.03851   -6616.6122   -6331.5737   0.74780884 
   26700    22.913297    400.80903    291.71009   -6622.0172   -6330.3071   0.74780884 
   26800    23.114473    418.14949    294.27127    -6617.044   -6322.7728   0.74780884 
   26900    22.628764    433.98567    288.08769    -6621.792   -6333.7044   0.74780884 
   27000    21.561816    373.69992    274.50433    -6630.471   -6355.9666   0.74780884 
   27100    22.580396     407.0043    287.47191   -6627.6664   -6340.1945   0.74780884 
   27200    23.010667    403.41754    292.94972   -6633.6339   -6340.6842   0.74780884 
   27300    22.660148    405.10301    288.48724   -6642.5594   -6354.0721   0.74780884 
   27400    23.524894    405.71249    299.49636   -6637.6298   -6338.1335   0.74780884 
   27500    23.328548    394.28543    296.99668   -6635.5653   -6338.5686   0.74780884 
   27600    23.462769    401.07995    298.70545   -6643.0905    -6344.385   0.74780884 
   27700    23.349626    388.21376    297.26502   -6649.4022   -6352.1371   0.74780884 
   27800    23.243061    392.69484    295.90834   -6634.4749   -6338.5666   0.74780884 
   27900    23.413681    386.58516     298.0805   -6647.1577   -6349.0772   0.74780884 
   28000    23.550399    360.62213    299.82106   -6653.2548   -6353.4337   0.74780884 
   28100    23.563752    366.10098    299.99106   -6661.3163   -6361.3253   0.74780884 
   28200    23.255933    365.26696    296.07221    -6651.065   -6354.9928   0.74780884 
   28300    22.809163    357.98806    290.38436   -6657.3648   -6366.9804   0.74780884 
   28400     23.13078    365.76643    294.47887   -6664.5143   -6370.0355   0.74780884 
   28500    22.511904    369.54534    286.59994   -6657.2228   -6370.6229   0.74780884 
   28600    23.417022    401.01368    298.12304   -6669.2844   -6371.1614   0.74780884 
   28700     23.74265    387.68112    302.26863   -6667.9655   -6365.6968   0.74780884 
   28800    24.212032    365.23676    308.24434   -6666.2564   -6358.0121   0.74780884 
   28900    23.554766    369.28074    299.87667   -6670.3754   -6370.4988   0.74780884 
   29000    23.843181    332.72763    303.54849   -6667.3924   -6363.8439   0.74780884 
   29100    23.092429     353.8842    293.99062   -6663.0425   -6369.0519   0.74780884 
   29200    23.255421    352.88709    296.06569    -6668.034   -6371.9683   0.74780884 
   29300    24.367699     350.6872    310.22615   -6660.7828   -6350.5567   0.74780884 
   29400    24.539948    369.72202    312.41905   -6695.6302   -6383.2111   0.74780884 
   29500    23.585612    374.00387    300.26936    -6711.961   -6411.6916   0.74780884 
   29600    23.932568    355.46038    304.68648   -6717.8199   -6413.1335   0.74780884 
   29700    23.644941    356.25232    301.02469    -6719.144   -6418.1193   0.74780884 
   29800    23.582952    375.43178     300.2355   -6719.8105    -6419.575   0.74780884 
   29900    23.662664    336.10008    301.25032    -6722.714   -6421.4637   0.74780884 
   30000    24.720128     328.4541    314.71294   -6721.4616   -6406.7486   0.74780884 
   30100    24.483214    300.65318    311.69677   -6721.8281   -6410.1314   0.74780884 
   30200    23.236405    295.35639     295.8236    -6718.746   -6422.9224   0.74780884 
   30300    24.154584    338.77542    307.51297    -6732.175    -6424.662   0.74780884 
   30400    24.437721    369.97012    311.11759   -6734.0896    -6422.972   0.74780884 
   30500    24.021115    355.40007    305.81377   -6735.3425   -6429.5287   0.74780884 
   30600    24.254908    304.00629     308.7902   -6732.6415   -6423.8513   0.74780884 
   30700    24.007853    341.55497    305.64493   -6734.5044   -6428.8594   0.74780884 
   30800    24.566661    324.81016    312.75913   -6731.7389   -6418.9798   0.74780884 
   30900    24.547844    337.97706    312.51958   -6742.4138   -6429.8942   0.74780884 
   31000     24.35298     354.1754    310.03876   -6751.4967   -6441.4579   0.74780884 
   31100    24.250817    330.15578    308.73811   -6753.3944   -6444.6563   0.74780884 
   31200    24.095281    313.61394    306.75798   -6768.1219    -6461.364   0.74780884 
   31300    24.098973    336.83137    306.80499   -6752.6256   -6445.8206   0.74780884 
   31400    24.785745    318.10386     315.5483   -6759.2078   -6443.6595   0.74780884 
   31500    24.699112    342.19058    314.44538   -6774.3777   -6459.9323   0.74780884 
   31600     24.22914     308.3961    308.46215   -6768.7227   -6460.2605   0.74780884 
   31700    24.601319     330.0156    313.20037   -6767.4986   -6454.2982   0.74780884 
   31800    25.345043    298.46984    322.66874   -6765.6057    -6442.937   0.74780884 
   31900    25.065266    331.13541     319.1069   -6768.4086   -6449.3017   0.74780884 
   32000    24.751415    314.05492    315.11124   -6769.7617   -6454.6504   0.74780884 
   32100    25.368867     337.8859    322.97206   -6764.1568   -6441.1847   0.74780884 
   32200    24.651774    342.59684    313.84272   -6768.1504   -6454.3077   0.74780884 
   32300    24.359691    343.15007     310.1242   -6773.0674   -6462.9432   0.74780884 
   32400     25.03038    303.11979    318.66276   -6766.7127   -6448.0499   0.74780884 
   32500    25.057108    302.06095    319.00304   -6778.4137   -6459.4107   0.74780884 
   32600    24.817195    361.76599     315.9487   -6770.8427    -6454.894   0.74780884 
   32700    24.762616    339.37536    315.25385   -6780.4805   -6465.2267   0.74780884 
   32800    25.457948    301.60581    324.10614   -6782.2154   -6458.1093   0.74780884 
   32900    25.176821    300.12841     320.5271   -6772.1736   -6451.6465   0.74780884 
   33000    25.451505     323.0907    324.02412   -6771.4687   -6447.4446   0.74780884 
   33100    25.284957    359.26204     321.9038   -6786.4493   -6464.5455   0.74780884 
   33200    25.561966     320.5429     325.4304   -6770.3191   -6444.8887   0.74780884 
   33300    25.457342    316.01124    324.09843   -6787.9969   -6463.8985   0.74780884 
   33400    26.112302    337.92564    332.43676    -6781.192   -6448.7553   0.74780884 
   33500    25.433848    301.74315    323.79933   -6775.6264   -6451.8271   0.74780884 
   33600    25.317213    304.79086    322.31445   -6779.2834   -6456.9689   0.74780884 
   33700    24.973972    286.67025    317.94463    -6788.277   -6470.3324   0.74780884 
   33800    25.488077    304.11567    324.48971   -6787.6267    -6463.137   0.74780884 
   33900    25.422047    301.48055    323.64909   -6788.9411    -6465.292   0.74780884 
   34000    25.835937    285.55609    328.91835   -6781.7338   -6452.8155   0.74780884 
   34100     25.96913    324.53651    330.61403   -6782.1004   -6451.4864   0.74780884 
   34200    25.663572    298.21808    326.72395   -6790.0787   -6463.3548   0.74780884 
   34300    25.891148    256.83975    329.62124   -6787.4484   -6457.8272   0.74780884 
   34400    26.272144    297.38956    334.47171   -6793.8589   -6459.3872   0.74780884 
   34500    25.042881    288.97911    318.82192   -6799.2324   -6480.4105   0.74780884 
   34600    25.674357     275.1595    326.86126   -6802.0462    -6475.185   0.74780884 
   34700    25.977029    286.77744    330.71459   -6782.8107   -6452.0961   0.74780884 
   34800    26.515504    252.16044    337.56993   -6786.7759    -6449.206   0.74780884 
   34900    26.287055     271.4619    334.66154   -6802.5065    -6467.845   0.74780884 
   35000    26.369268    271.75824     335.7082   -6787.0324   -6451.3242   0.74780884 
   35100    26.473836    276.42724    337.03945   -6797.8956   -6460.8561   0.74780884 
   35200    26.675216    279.09267    339.60324   -6805.3305   -6465.7273   0.74780884 
   35300    26.892208    270.18217    342.36577   -6808.5473   -6466.1815   0.74780884 
   35400    26.544317     237.1856    337.93676     -6796.56   -6458.6232   0.74780884 
   35500    25.936892    272.01527    330.20361   -6809.0316    -6478.828   0.74780884 
   35600    26.529061    274.64253    337.74253   -6805.1497   -6467.4072   0.74780884 
   35700    26.212323    244.59355    333.71012   -6801.6948   -6467.9847   0.74780884 
   35800    26.421961    264.57993    336.37904   -6813.8025   -6477.4234   0.74780884 
   35900    26.816344    265.61758    341.39994   -6813.0779    -6471.678   0.74780884 
   36000    26.350167    306.59471    335.46503    -6806.216    -6470.751   0.74780884 
   36100    26.805883    254.59054    341.26676   -6826.7898   -6485.5231   0.74780884 
   36200    26.356264    272.93867    335.54264   -6824.7065   -6489.1639   0.74780884 
   36300    26.247455    261.56684     334.1574   -6819.3673   -6485.2099   0.74780884 
   36400    27.575692    240.32931    351.06723    -6832.747   -6481.6798   0.74780884 
   36500    26.577774    258.19332     338.3627   -6833.1212   -6494.7585   0.74780884 
   36600    26.266759    249.96294    334.40315   -6827.9025   -6493.4994   0.74780884 
   36700    26.912641    256.80772    342.62591   -6828.2961   -6485.6702   0.74780884 
   36800    25.943054    246.56684    330.28205   -6836.9123   -6506.6302   0.74780884 
   36900    26.845597    264.90539    341.77236   -6835.6373    -6493.865   0.74780884 
   37000    27.266978    245.73871    347.13699   -6838.3711   -6491.2341   0.74780884 
   37100    25.748757     263.9185    327.80844   -6834.4819   -6506.6734   0.74780884 
   37200    25.878722    273.67828    329.46304   -6827.4149   -6497.9518   0.74780884 
   37300    27.084729     238.2336    344.81676   -6835.8378    -6491.021   0.74780884 
   37400    26.159855    250.31132    333.04216   -6824.4175   -6491.3753   0.74780884 
   37500    27.346607    241.38961    348.15074   -6826.9176   -6478.7669   0.74780884 
   37600     26.89901    242.45225    342.45237   -6840.1886   -6497.7363   0.74780884 
   37700    26.937463    263.84071    342.94191   -6843.9279    -6500.986   0.74780884 
   37800    27.378716    252.55401    348.55952   -6847.0946   -6498.5351   0.74780884 
   37900    26.801655    224.83332    341.21293    -6840.585   -6499.3721   0.74780884 
   38000    26.749472    212.97201    340.54859   -6844.6561   -6504.1075   0.74780884 
   38100    26.265624    252.70361     334.3887   -6835.7083   -6501.3196   0.74780884 
   38200    27.727323     298.2718    352.99765   -6838.8678   -6485.8702   0.74780884 
   38300    27.118169    251.58349    345.24248   -6849.6874   -6504.4449   0.74780884 
   38400    26.903383    232.26073    342.50804    -6838.828     -6496.32   0.74780884 
   38500     26.56782     231.1229    338.23597   -6844.9861   -6506.7501   0.74780884 
   38600    27.633391    237.38296    351.80179   -6847.2945   -6495.4927   0.74780884 
   38700    27.406204    252.66636    348.90947   -6858.3437   -6509.4342   0.74780884 
   38800     27.85079    213.82986    354.56951   -6842.2162   -6487.6467   0.74780884 
   38900    27.450686    272.09514    349.47577   -6848.0474   -6498.5717   0.74780884 
   39000    27.880598    267.40506      354.949   -6843.9708   -6489.0218   0.74780884 
   39100    27.163587    216.67149    345.82071   -6845.1013   -6499.2805   0.74780884 
   39200    27.440029    246.49217     349.3401   -6846.3059   -6496.9658   0.74780884 
   39300    27.332182    246.28711    347.96709   -6843.7946   -6495.8275   0.74780884 
   39400    27.042422    204.10496    344.27815   -6853.6167   -6509.3385   0.74780884 
   39500    27.202591    223.81282    346.31727   -6844.7195   -6498.4022   0.74780884 
   39600    28.167228    253.26475     358.5981   -6856.1186   -6497.5205   0.74780884 
   39700     28.42594    240.07251    361.89177    -6867.745   -6505.8532   0.74780884 
   39800    27.625321    235.02456    351.69906   -6865.2367   -6513.5377   0.74780884 
   39900     27.76593    264.37116    353.48915   -6863.0154   -6509.5262   0.74780884 
   40000    27.574254    226.53922    351.04892    -6877.749      -6526.7   0.74780884 
   40100    27.633967     235.7714    351.80913   -6867.9993   -6516.1902   0.74780884 
   40200    27.129308    191.40497     345.3843   -6868.6886   -6523.3043   0.74780884 
   40300    28.935667    228.90366    368.38113   -6869.3862   -6501.0051   0.74780884 
   40400    27.261551    220.45878    347.06789   -6860.5352   -6513.4673   0.74780884 
   40500    27.894679    235.66237    355.12827   -6865.9094   -6510.7811   0.74780884 
   40600    27.787587    218.70845    353.76488   -6865.9162   -6512.1513   0.74780884 
   40700    28.618816    219.24539    364.34729   -6869.2549   -6504.9076   0.74780884 
   40800    27.889791    205.97845    355.06604   -6873.9219   -6518.8559   0.74780884 
   40900    27.726066    221.60024    352.98165   -6873.1976    -6520.216   0.74780884 
   41000    28.430343    221.96808    361.94783   -6872.9798    -6511.032   0.74780884 
   41100    27.865856    231.04302    354.76132     -6868.48   -6513.7187   0.74780884 
   41200     28.36696    206.81938     361.1409   -6872.6295   -6511.4886   0.74780884 
   41300    28.952242    213.01319    368.59214   -6873.3059   -6504.7138   0.74780884 
   41400    28.205118    194.05876    359.08048   -6876.2982   -6517.2178   0.74780884 
   41500    28.043357    219.02845    357.02109   -6873.4937   -6516.4726   0.74780884 
   41600     29.28888    191.03318    372.87789   -6883.7785   -6510.9006   0.74780884 
   41700    28.705384    224.68257    365.44938   -6869.1195   -6503.6701   0.74780884 
   41800    28.550299    209.44752    363.47499   -6873.6649   -6510.1899   0.74780884 
   41900    28.510483    206.12595     362.9681   -6870.0804   -6507.1123   0.74780884 
   42000    28.519178    179.73482    363.07879   -6879.1349   -6516.0561   0.74780884 
   42100     28.54335    214.62099    363.38653   -6871.0504   -6507.6639   0.74780884 
   42200    29.050129    212.01909    369.83835   -6883.3923    -6513.554   0.74780884 
   42300     29.75769    238.97319    378.84633   -6882.8839   -6504.0376   0.74780884 
   42400    29.301312    191.15811    373.03617   -6896.1338   -6523.0976   0.74780884 
   42500    28.571748    182.36349    363.74806    -6908.305    -6544.557   0.74780884 
   42600     29.05306    201.29539    369.87566   -6880.4578   -6510.5821   0.74780884 
   42700    29.049964    217.41811    369.83625   -6882.2491   -6512.4129   0.74780884 
   42800    30.365918    196.22904    386.58971    -6873.526   -6486.9363   0.74780884 
   42900    29.078357    181.36109    370.19772   -6876.0712   -6505.8735   0.74780884 
   43000    29.610637    172.64718     376.9742   -6904.6743   -6527.7001   0.74780884 
   43100     29.45099    202.98404    374.94172   -6890.4501   -6515.5084   0.74780884 
   43200    29.516728    204.82411    375.77863   -6886.9859   -6511.2073   0.74780884 
   43300    28.477941    200.61049    362.55379     -6893.64   -6531.0862   0.74780884 
   43400    28.905637    201.90382    367.99882   -6898.2437   -6530.2449   0.74780884 
   43500    29.105274    180.58129     370.5404    -6904.668   -6534.1276   0.74780884 
   43600    28.780899    184.93875    366.41077   -6896.5487    -6530.138   0.74780884 
   43700    28.869453    183.73014    367.53815   -6896.6865   -6529.1483   0.74780884 
   43800      28.9631    200.00308    368.73037   -6896.7996   -6528.0692   0.74780884 
   43900    29.109868    191.40971    370.59888   -6901.3862   -6530.7873   0.74780884 
   44000    29.526797     219.1681    375.90682   -6899.1323   -6523.2255   0.74780884 
   44100    29.158593    191.11825     371.2192   -6891.0839   -6519.8647   0.74780884 
   44200    29.001658    194.82801    369.22126   -6898.6234   -6529.4021   0.74780884 
   44300    29.658284    184.93035    377.58079   -6896.7588    -6519.178   0.74780884 
   44400    29.336405    173.42069    373.48294    -6896.091   -6522.6081   0.74780884 
   44500    29.867914    152.68318     380.2496   -6900.7376    -6520.488   0.74780884 
   44600     29.13368    181.96807    370.90204   -6896.5488   -6525.6468   0.74780884 
   44700    30.110036    185.46919    383.33207   -6902.8201   -6519.4881   0.74780884 
   44800    29.948365    197.54951    381.27383   -6896.1142   -6514.8404   0.74780884 
   44900    29.817421    174.22431    379.60677   -6882.8676   -6503.2608   0.74780884 
   45000    30.124137    198.05316    383.51158   -6897.7795   -6514.2679   0.74780884 
   45100    30.207066    172.77217    384.56735   -6912.8072   -6528.2399   0.74780884 
   45200    29.696017    182.69679    378.06118   -6903.5249   -6525.4637   0.74780884 
   45300    30.175014    158.49475    384.15931   -6903.0277   -6518.8684   0.74780884 
   45400    29.891713    148.49139    380.55258   -6899.5626     -6519.01   0.74780884 
   45500    29.546218    153.81487    376.15407   -6900.3887   -6524.2346   0.74780884 
   45600    30.450378    160.82821    387.66497    -6912.593    -6524.928   0.74780884 
   45700    29.852396    172.73206    380.05203    -6903.202     -6523.15   0.74780884 
   45800    29.629685    157.38306     377.2167   -6916.0681   -6538.8514   0.74780884 
   45900    29.952106    162.73464    381.32146   -6916.7022   -6535.3808   0.74780884 
   46000    30.301646    153.14983    385.77146   -6905.2301   -6519.4586   0.74780884 
   46100    29.975464     164.8588    381.61883   -6902.1675   -6520.5486   0.74780884 
   46200    30.360129    177.73308    386.51601    -6904.841    -6518.325   0.74780884 
   46300    29.455925    184.40727    375.00455   -6923.4474   -6548.4428   0.74780884 
   46400    31.037234    189.99742    395.13626   -6922.3746   -6527.2383   0.74780884 
   46500    30.735231    191.77246    391.29144   -6919.7597   -6528.4682   0.74780884 
   46600    31.209405     189.5688    397.32817   -6906.6041   -6509.2759   0.74780884 
   46700    30.414064    190.53264    387.20265   -6928.8041   -6541.6014   0.74780884 
   46800     29.84991    180.33376    380.02039   -6910.7308   -6530.7104   0.74780884 
   46900    31.433001    142.53382    400.17478   -6930.5292   -6530.3544   0.74780884 
   47000    29.836982    176.17673    379.85581   -6922.2557   -6542.3999   0.74780884 
   47100    29.613526     144.8157    377.01097   -6919.5787   -6542.5678   0.74780884 
   47200    31.082649    136.69618    395.71444   -6927.3332   -6531.6187   0.74780884 
   47300    30.920466    144.59478    393.64968   -6913.0934   -6519.4437   0.74780884 
   47400    29.899447    166.97131    380.65105   -6931.5666   -6550.9156   0.74780884 
   47500    30.845056    139.95936    392.68964   -6929.2117   -6536.5221   0.74780884 
   47600    30.793834    157.67368    392.03752   -6945.8936   -6553.8561   0.74780884 
   47700    30.260765    152.64082      385.251   -6941.5395   -6556.2885   0.74780884 
   47800    30.820657     149.5729    392.37901   -6951.0906   -6558.7116   0.74780884 
   47900    31.758258    178.88142    404.31565   -6942.3873   -6538.0717   0.74780884 
   48000    31.589442    168.65195    402.16644   -6957.7982   -6555.6318   0.74780884 
   48100    31.138602    191.24304    396.42678   -6961.3702   -6564.9434   0.74780884 
   48200    31.052743    143.56337     395.3337   -6958.5381   -6563.2044   0.74780884 
   48300    29.945398    154.43469    381.23605    -6958.519    -6577.283   0.74780884 
   48400      30.2708    146.15142    385.37876   -6959.0073   -6573.6285   0.74780884 
   48500    29.925751    135.02911    380.98593   -6955.5971   -6574.6112   0.74780884 
   48600    31.102361    155.01146    395.96539   -6961.4824    -6565.517   0.74780884 
   48700    31.287629    201.74059    398.32405     -6957.43   -6559.1059   0.74780884 
   48800    31.317976    150.04878    398.71039   -6964.2728   -6565.5624   0.74780884 
   48900    30.597717    149.05115    389.54075    -6959.161   -6569.6202   0.74780884 
   49000    30.547225    145.07903    388.89794   -6964.2966   -6575.3987   0.74780884 
   49100    31.164429    131.12509    396.75558   -6971.2239   -6574.4683   0.74780884 
   49200      31.3711    140.67649    399.38672   -6974.0377    -6574.651   0.74780884 
   49300    31.296169    168.18898    398.43277   -6960.0212   -6561.5885   0.74780884 
   49400     31.06604     144.6738    395.50299   -6977.8602   -6582.3572   0.74780884 
   49500    31.238934    143.60425     397.7041   -6975.6727   -6577.9686   0.74780884 
   49600    31.592354    167.20204    402.20351   -6971.8183   -6569.6148   0.74780884 
   49700    30.804859    138.45548    392.17788   -6966.4301   -6574.2522   0.74780884 
   49800    31.243992    154.03296     397.7685   -6970.4593   -6572.6908   0.74780884 
   49900    31.504531    124.69104    401.08544   -6972.0714   -6570.9859   0.74780884 
   50000     31.10735    141.70252    396.02891   -6961.8146   -6565.7857   0.74780884 
   50100    31.342213    133.61445    399.01895   -6968.5979   -6569.5789   0.74780884 
   50200     31.36962    150.63072    399.36788   -6968.9402   -6569.5723   0.74780884 
   50300    31.606298    152.05337    402.38103    -6969.523   -6567.1419   0.74780884 
   50400    31.578368    134.81761    402.02545    -6975.125   -6573.0995   0.74780884 
   50500    31.687464    171.98654    403.41436   -6976.4341   -6573.0198   0.74780884 
   50600    31.832961    150.67662    405.26669   -6980.4627    -6575.196   0.74780884 
   50700    32.205076    164.22338     410.0041   -6970.3349   -6560.3308   0.74780884 
   50800    32.095913    134.98257    408.61434   -6976.3737   -6567.7593   0.74780884 
   50900    31.705447    156.65186    403.64331   -6983.4929   -6579.8496   0.74780884 
   51000    30.706737    116.49365    390.92869   -6986.8608   -6595.9321   0.74780884 
   51100    31.110623    160.58343    396.07057    -6997.038   -6600.9674   0.74780884 
   51200    31.489315    128.83064    400.89172    -6988.889   -6587.9973   0.74780884 
   51300    31.927371    145.04551    406.46863     -6979.96   -6573.4913   0.74780884 
   51400    31.737968    124.73349    404.05733   -6990.8326   -6586.7753   0.74780884 
   51500    32.194903    128.64694    409.87459   -6997.4148   -6587.5402   0.74780884 
   51600    30.961132    97.057178     394.1674   -6994.9269   -6600.7595   0.74780884 
   51700    32.681612    96.897914     416.0709   -7013.8404   -6597.7695   0.74780884 
   51800    31.278092     141.9542    398.20263   -6996.0562   -6597.8536   0.74780884 
   51900    33.277479    93.693896     423.6569   -7016.0246   -6592.3677   0.74780884 
   52000    32.206581    124.52732    410.02327   -7000.6906   -6590.6673   0.74780884 
   52100    32.207884    101.54783    410.03985   -7005.5837   -6595.5439   0.74780884 
   52200    33.063872    145.42882    420.93747   -7017.2501   -6596.3126   0.74780884 
   52300    32.105321    116.09614    408.73412   -7026.8208   -6618.0867   0.74780884 
   52400    31.734899    104.51412    404.01825   -7018.4791   -6614.4609   0.74780884 
   52500    33.171817     121.8314    422.31172   -7026.3875   -6604.0758   0.74780884 
   52600    31.441314    130.00181    400.28062   -7025.9454   -6625.6647   0.74780884 
   52700    32.499779    125.57116    413.75598   -7016.8409   -6603.0849   0.74780884 
   52800    31.873879    95.297577    405.78762   -7031.1586   -6625.3709   0.74780884 
   52900    32.068535     91.80172    408.26579   -7023.4404   -6615.1746   0.74780884 
   53000    32.498892    130.07329    413.74468   -7030.4273   -6616.6826   0.74780884 
   53100    31.492503     128.1297    400.93231   -7031.4411   -6630.5088   0.74780884 
   53200    31.849638    120.44545    405.47901    -7051.803    -6646.324   0.74780884 
   53300    32.193711    104.77161    409.85941   -7025.1359   -6615.2765   0.74780884 
   53400    31.470238    126.44365    400.64885   -7038.7601   -6638.1112   0.74780884 
   53500    33.907971     96.75725    431.68373   -7041.7639   -6610.0801   0.74780884 
   53600    33.557348    146.81426    427.21994    -7025.524   -6598.3041   0.74780884 
   53700    32.147732    115.38606    409.27405   -7039.0686   -6629.7946   0.74780884 
   53800    33.287517      110.121     423.7847   -7041.0856   -6617.3009   0.74780884 
   53900    32.043197    87.621005    407.94322   -7035.1665   -6627.2233   0.74780884 
   54000    32.742178    108.27868    416.84197   -7035.7498   -6618.9078   0.74780884 
   54100    32.425951    145.37132    412.81607   -7036.4062   -6623.5901   0.74780884 
   54200    32.554521    129.12776     414.4529   -7044.5262   -6630.0733   0.74780884 
   54300    33.025764    90.635513    420.45231   -7043.0112   -6622.5589   0.74780884 
   54400    33.055757    64.888303    420.83416   -7031.9904   -6611.1562   0.74780884 
   54500    33.428147    76.512047    425.57506    -7037.542   -6611.9669   0.74780884 
   54600    31.546691    108.34944    401.62218   -7051.4931    -6649.871   0.74780884 
   54700    32.879982    71.700123    418.59636   -7055.8933   -6637.2969   0.74780884 
   54800    32.547177    89.600397     414.3594   -7044.5881   -6630.2287   0.74780884 
   54900    32.787736    119.13578    417.42197   -7022.5053   -6605.0833   0.74780884 
   55000    33.621255    76.276917    428.03354   -7037.1718   -6609.1383   0.74780884 
   55100    33.359673    115.62808    424.70332   -7038.1219   -6613.4186   0.74780884 
   55200    33.283771     78.89571    423.73701   -7048.0604   -6624.3234   0.74780884 
   55300    33.375318     79.57985     424.9025   -7047.7588   -6622.8563   0.74780884 
   55400    33.224041    114.33461    422.97658   -7033.6839   -6610.7073   0.74780884 
   55500    34.701974    82.576038    441.79221    -7042.021   -6600.2288   0.74780884 
   55600    33.620997    111.22863    428.03025   -7036.9031   -6608.8728   0.74780884 
   55700    32.882428    130.70266     418.6275   -7039.5241   -6620.8966   0.74780884 
   55800    33.935958    83.654372    432.04003   -7038.0738   -6606.0338   0.74780884 
   55900    33.278179    97.694209    423.66581   -7020.6204   -6596.9546   0.74780884 
   56000    33.487107    106.44345    426.32569   -7047.5035   -6621.1778   0.74780884 
   56100     33.81824    115.48123    430.54135   -7046.3792   -6615.8379   0.74780884 
   56200    33.751047    89.065047    429.68592   -7046.6549    -6616.969   0.74780884 
   56300    32.998756    99.051214    420.10848   -7052.8797   -6632.7713   0.74780884 
   56400    33.980361    86.577246    432.60533   -7059.9965   -6627.3911   0.74780884 
   56500    33.247214    74.531417     423.2716   -7049.1545   -6625.8829   0.74780884 
   56600    33.523814    90.833733    426.79301   -7052.8916   -6626.0986   0.74780884 
   56700    33.390913    92.150147    425.10104   -7046.7389   -6621.6379   0.74780884 
   56800    33.537345    123.34521    426.96527   -7044.6107   -6617.6454   0.74780884 
   56900    34.356283    103.12982    437.39121   -7040.3113     -6602.92   0.74780884 
   57000    33.674973    135.34149    428.71742   -7031.0987   -6602.3813   0.74780884 
   57100    33.764906    61.715203    429.86236    -7050.094   -6620.2317   0.74780884 
   57200    33.267079    114.50734    423.52451   -7053.9029   -6630.3784   0.74780884 
   57300    34.232584    105.50807    435.81639   -7046.9462   -6611.1298   0.74780884 
   57400    34.114545    75.607305    434.31363   -7051.4545   -6617.1409   0.74780884 
   57500    33.672451    88.407252    428.68531   -7062.5248   -6633.8395   0.74780884 
   57600    33.598482    112.63797    427.74361    -7056.061   -6628.3174   0.74780884 
   57700     33.95979    123.84758    432.34343   -7049.7252   -6617.3817   0.74780884 
   57800    33.633762    75.239061    428.19276   -7046.0771   -6617.8843   0.74780884 
   57900    33.694668    70.567499    428.96816   -7041.4957   -6612.5276   0.74780884 
   58000    34.144005    101.98873    434.68868   -7042.1554   -6607.4668   0.74780884 
   58100    33.683512    102.29646    428.82613   -7040.5009   -6611.6747   0.74780884 
   58200    33.493008    65.592404    426.40082   -7053.6313   -6627.2305   0.74780884 
   58300    34.088343     62.74998    433.98005    -7051.697    -6617.717   0.74780884 
   58400    34.714286    89.941936    441.94896   -7048.3441   -6606.3952   0.74780884 
   58500    33.103644    86.755432    421.44381   -7034.1911   -6612.7473   0.74780884 
   58600    34.435159    54.159533    438.39538   -7057.5804    -6619.185   0.74780884 
   58700    35.291148    86.513833      449.293   -7060.9056   -6611.6126   0.74780884 
   58800    33.799493      66.6146    430.30269   -7056.3794   -6626.0768   0.74780884 
   58900    35.071387    95.091407    446.49523   -7050.0738   -6603.5786   0.74780884 
   59000    33.922837    74.572813    431.87299   -7043.9932   -6612.1202   0.74780884 
   59100    34.069852    100.41795    433.74464   -7055.7342   -6621.9895   0.74780884 
   59200    33.646997    90.292049    428.36126   -7052.8634   -6624.5022   0.74780884 
   59300    34.239998    75.087481    435.91078   -7047.4295   -6611.5187   0.74780884 
   59400    34.528846    91.538473     439.5881   -7044.0487   -6604.4606   0.74780884 
   59500    35.018838    89.023393    445.82622   -7056.5443   -6610.7181   0.74780884 
   59600    34.219027    68.855729     435.6438   -7036.0544   -6600.4106   0.74780884 
   59700    34.651171     77.88689    441.14543   -7058.8055   -6617.6601   0.74780884 
   59800    34.042565    59.331744    433.39725   -7044.6693   -6611.2721   0.74780884 
   59900    34.619104     40.83711    440.73719   -7041.4381   -6600.7009   0.74780884 
   60000    34.586456    57.715023    440.32154   -7046.3515   -6606.0299   0.74780884 
   60100    33.731692    93.149182    429.43951   -7039.4712   -6610.0317   0.74780884 
   60200    34.761363    58.027084    442.54829   -7051.0319   -6608.4836   0.74780884 
   60300    34.145606    69.340819    434.70907   -7052.7869   -6618.0779   0.74780884 
   60400    34.774896    66.280438    442.72058   -7039.9301   -6597.2095   0.74780884 
   60500    34.830455    101.84532     443.4279   -7043.4182   -6599.9903   0.74780884 
   60600    34.303728    85.468618    436.72212   -7054.8049   -6618.0828   0.74780884 
   60700    34.704653     106.8143    441.82631   -7037.9154   -6596.0891   0.74780884 
   60800    34.681962    93.198786    441.53743   -7039.5488   -6598.0114   0.74780884 
   60900    34.652346    92.583644    441.16039    -7046.548   -6605.3876   0.74780884 
   61000    34.108184    87.569261    434.23264     -7056.14   -6621.9073   0.74780884 
   61100    34.618438    67.384615    440.72871   -7062.8655   -6622.1368   0.74780884 
   61200    34.767665    48.672208    442.62853   -7047.6936   -6605.0651   0.74780884 
   61300    34.999046    59.436173    445.57424   -7050.2557   -6604.6815   0.74780884 
   61400    34.503793    82.618874    439.26916   -7037.0345   -6597.7654   0.74780884 
   61500    34.870031    69.315521    443.93175   -7054.7615   -6610.8297   0.74780884 
   61600    35.892506    77.229236    456.94892   -7051.5328   -6594.5839   0.74780884 
   61700    35.344968    107.36619    449.97819   -7042.4661   -6592.4879   0.74780884 
   61800    34.470594     89.36973     438.8465   -7042.7874   -6603.9409   0.74780884 
   61900    34.537962     86.92636    439.70417   -7055.9642     -6616.26   0.74780884 
   62000    34.888026    79.913389    444.16084   -7048.1656   -6604.0048   0.74780884 
   62100    35.931907    127.04492    457.45054   -7045.7058   -6588.2553   0.74780884 
   62200    35.106722    106.69124    446.94508   -7047.0623   -6600.1172   0.74780884 
   62300    34.889844    85.321934    444.18399   -7044.8045   -6600.6205   0.74780884 
   62400     36.40782    62.242919     463.5094   -7049.2018   -6585.6924   0.74780884 
   62500    35.593628    39.039495    453.14389   -7033.4413   -6580.2974   0.74780884 
   62600    35.376817    41.381196    450.38366   -7063.0992   -6612.7156   0.74780884 
   62700    35.568288    59.395341    452.82129   -7045.4756   -6592.6543   0.74780884 
   62800    34.822291    46.562413    443.32397   -7030.8139     -6587.49   0.74780884 
   62900    35.346844    68.193117    450.00207   -7043.8391    -6593.837   0.74780884 
   63000    34.667795    101.60064    441.35707   -7040.7649   -6599.4079   0.74780884 
   63100    35.298616    89.759215    449.38808   -7046.8571   -6597.4691   0.74780884 
   63200    36.379975    60.029456     463.1549   -7050.2136   -6587.0587   0.74780884 
   63300    36.260915    46.111491    461.63914   -7053.7866   -6592.1474   0.74780884 
   63400    36.002273    67.475865    458.34636    -7034.529   -6576.1826   0.74780884 
   63500    36.426434    81.064481    463.74637   -7046.7902   -6583.0438   0.74780884 
   63600    36.455301     56.01686    464.11388   -7045.6869    -6581.573   0.74780884 
   63700    35.046343    63.670079    446.17638   -7040.8208   -6594.6444   0.74780884 
   63800    35.604666    95.273862    453.28442   -7049.3163   -6596.0319   0.74780884 
   63900    36.486908    113.90895    464.51628   -7046.3181   -6581.8018   0.74780884 
   64000    35.643095     97.17345    453.77366   -7044.8622   -6591.0885   0.74780884 
   64100    35.767999    62.992299    455.36382   -7036.9026   -6581.5387   0.74780884 
   64200    36.405355    67.171175    463.47802   -7061.3159   -6597.8379   0.74780884 
   64300    36.110088    79.683218    459.71897   -7050.8782   -6591.1593   0.74780884 
   64400    36.512467    74.586966    464.84166   -7063.4518   -6598.6101   0.74780884 
   64500    35.635502    69.708907    453.67699   -7052.9661   -6599.2891   0.74780884 
   64600    36.475432    69.121581    464.37018   -7044.2849   -6579.9148   0.74780884 
   64700    35.461922      82.8239    451.46713   -7045.6526   -6594.1854   0.74780884 
   64800     37.56618     103.2925    478.25654   -7036.7244   -6558.4679   0.74780884 
   64900    36.357483    54.000064    462.86856   -7031.5423   -6568.6737   0.74780884 
   65000    36.577128    67.560288    465.66487   -7044.0082   -6578.3433   0.74780884 
   65100    34.873824    87.147201    443.98003   -7033.3605   -6589.3804   0.74780884 
   65200    37.160314    91.080514    473.08944   -7058.4259   -6585.3364   0.74780884 
   65300    34.609034    70.299969    440.60898   -7024.3934   -6583.7845   0.74780884 
   65400    36.071992    33.512459    459.23397   -7038.9465   -6579.7125   0.74780884 
   65500    35.757409    52.267411      455.229   -7035.4687   -6580.2397   0.74780884 
   65600    36.732674    65.072217    467.64513   -7039.0774   -6571.4323   0.74780884 
   65700    37.117404    31.853859    472.54315   -7048.8228   -6576.2797   0.74780884 
   65800    36.986594    55.779425    470.87779     -7044.52   -6573.6422   0.74780884 
   65900    36.005028    73.718492    458.38144   -7057.7011   -6599.3196   0.74780884 
   66000    36.856546    63.068051    469.22215   -7058.2726   -6589.0505   0.74780884 
   66100    37.126877    67.356389    472.66375   -7051.9522   -6579.2885   0.74780884 
   66200    37.512892    69.143527    477.57811   -7059.2219   -6581.6438   0.74780884 
   66300    36.628485     52.63675    466.31869   -7051.8551   -6585.5364   0.74780884 
   66400    36.330956    33.614078    462.53084   -7044.0236   -6581.4928   0.74780884 
   66500    36.638115    59.831555     466.4413   -7040.7116   -6574.2703   0.74780884 
   66600    36.104418    60.009418    459.64678   -7061.6085   -6601.9617   0.74780884 
   66700    35.871967     70.35324    456.68744    -7054.167   -6597.4796   0.74780884 
   66800    37.147322    60.146982    472.92403   -7039.4225   -6566.4985   0.74780884 
   66900    36.894572    71.451047    469.70626    -7057.108   -6587.4017   0.74780884 
   67000     36.69972    72.090655    467.22559   -7061.5487   -6594.3232   0.74780884 
   67100     37.34743     98.81958    475.47161   -7052.1704   -6576.6988   0.74780884 
   67200    37.595597    60.859226    478.63104    -7054.426   -6575.7949   0.74780884 
   67300    36.679488    43.670887    466.96801   -7058.0567   -6591.0886   0.74780884 
   67400     37.75457    62.503578    480.65493   -7054.7291   -6574.0742   0.74780884 
   67500    37.585669    63.469376    478.50464   -7047.0893   -6568.5847   0.74780884 
   67600    36.500642     60.40711    464.69113    -7054.398   -6589.7069   0.74780884 
   67700    37.873975    46.811487    482.17509   -7048.7339   -6566.5588   0.74780884 
   67800    37.434716    41.033948    476.58285   -7040.7768   -6564.1939   0.74780884 
   67900    37.465673    67.646477    476.97698   -7039.5251   -6562.5481   0.74780884 
   68000    37.597132    59.687449    478.65058   -7044.3828   -6565.7323   0.74780884 
   68100    37.008337    65.860943    471.15461   -7047.4979   -6576.3433   0.74780884 
   68200    36.094672    81.668711    459.52271   -7060.9637    -6601.441   0.74780884 
   68300    36.313293    45.462154    462.30598   -7039.0997   -6576.7938   0.74780884 
   68400    37.080908    79.221561    472.07851   -7045.3137   -6573.2352   0.74780884 
   68500    36.990072    82.371284    470.92207   -7060.4165   -6589.4945   0.74780884 
   68600    36.746487    61.057724    467.82098   -7038.0656   -6570.2447   0.74780884 
   68700    37.669185    67.449214    479.56789   -7048.8938   -6569.3259   0.74780884 
   68800    37.469828    64.651544    477.02987   -7049.1123   -6572.0825   0.74780884 
   68900    37.219365    36.811236    473.84121   -7051.0609   -6577.2197   0.74780884 
   69000    37.276859    61.278855    474.57317   -7055.0168   -6580.4436   0.74780884 
   69100    36.572297    70.518046    465.60337   -7057.9696   -6592.3662   0.74780884 
   69200    36.547077    77.122348    465.28229   -7066.2068   -6600.9246   0.74780884 
   69300    37.973453    41.924954    483.44154   -7064.4695    -6581.028   0.74780884 
   69400    37.969113    42.078265    483.38628   -7064.6419   -6581.2556   0.74780884 
   69500    36.947668    69.870733    470.38223   -7066.0897   -6595.7075   0.74780884 
   69600    36.758797    80.879644     467.9777   -7055.1875   -6587.2098   0.74780884 
   69700    37.763147    55.201512    480.76413   -7051.4253   -6570.6612   0.74780884 
   69800    38.361004    55.487758    488.37547   -7057.2245    -6568.849   0.74780884 
   69900    37.117777    50.841447    472.54789   -7047.4233   -6574.8754   0.74780884 
   70000    38.689854    59.494419    492.56206   -7059.8485   -6567.2865   0.74780884 
   70100    38.260041    85.856072     487.0901   -7048.3051    -6561.215   0.74780884 
   70200    37.648014    78.989422    479.29836   -7047.5231   -6568.2248   0.74780884 
   70300    37.525138    110.46027    477.73403    -7048.069   -6570.3349   0.74780884 
   70400    38.526943    65.419756    490.48804   -7042.7335   -6552.2455   0.74780884 
   70500    38.031365    55.595638    484.17882   -7050.8316   -6566.6528   0.74780884 
   70600    37.066344    23.537412    471.89309   -7047.3675   -6575.4745   0.74780884 
   70700    38.475876    30.470995     489.8379   -7065.9736   -6576.1356   0.74780884 
   70800    37.734033    65.013027    480.39348    -7055.776   -6575.3826   0.74780884 
   70900     36.95932     52.88674    470.53057   -7045.7621   -6575.2315   0.74780884 
   71000    37.826357    20.141102    481.56886   -7070.6665   -6589.0977   0.74780884 
   71100    38.596501    31.885646    491.37358   -7074.1175   -6582.7439   0.74780884 
   71200     38.58086    66.651701    491.17446    -7055.422   -6564.2476   0.74780884 
   71300     38.02411    63.455565    484.08646   -7054.3258   -6570.2394   0.74780884 
   71400     38.01658    37.868358    483.99059   -7053.1548   -6569.1642   0.74780884 
   71500    37.420925    64.652982    476.40728   -7050.8076   -6574.4003   0.74780884 
   71600    38.450206    57.571272     489.5111   -7069.8602   -6580.3491   0.74780884 
   71700    38.351722    7.8870474    488.25729    -7071.833   -6583.5757   0.74780884 
   71800     38.17317    51.922204    485.98415   -7062.9496   -6576.9655   0.74780884 
   71900    37.354713    53.259927    475.56433   -7067.4649   -6591.9006   0.74780884 
   72000     38.23562    69.141253     486.7792   -7063.8647   -6577.0855   0.74780884 
   72100    38.933769    68.810781    495.66736   -7070.9538   -6575.2864   0.74780884 
   72200    39.036363    62.630221    496.97348   -7072.3171   -6575.3436   0.74780884 
   72300    37.522062    67.873565    477.69486   -7070.5313   -6592.8364   0.74780884 
   72400    38.758054    46.985016    493.43033   -7080.7895   -6587.3591   0.74780884 
   72500    38.655185    52.142334    492.12069    -7069.323   -6577.2024   0.74780884 
   72600    38.578378    59.360937    491.14287   -7054.6513   -6563.5084   0.74780884 
   72700     38.16377    42.144071    485.86448    -7068.084   -6582.2195   0.74780884 
   72800    39.894423    52.186057    507.89748    -7043.632   -6535.7345   0.74780884 
   72900    38.372781     59.81417     488.5254   -7062.8149   -6574.2895   0.74780884 
   73000     37.96613    71.160594    483.34831   -7054.1683   -6570.8199   0.74780884 
   73100    40.883418    1.4965496    520.48841   -7050.6928   -6530.2044   0.74780884 
   73200     38.93893    36.350007    495.73307   -7072.5729   -6576.8398   0.74780884 
   73300    39.258837    34.930292    499.80582   -7065.7269   -6565.9211   0.74780884 
   73400    39.702089    46.310782    505.44888   -7058.6889     -6553.24   0.74780884 
   73500    40.137803    49.480735    510.99596   -7055.1165   -6544.1206   0.74780884 
   73600    38.247748    40.310246     486.9336   -7066.1278   -6579.1943   0.74780884 
   73700    39.635964    46.972905    504.60703   -7049.4264   -6544.8194   0.74780884 
   73800    40.372268    57.271134    513.98095   -7061.7154   -6547.7345   0.74780884 
   73900    38.924889    13.144562    495.55431   -7051.0644     -6555.51   0.74780884 
   74000    37.801489    49.048691    481.25225    -7043.415   -6562.1628   0.74780884 
   74100    39.009917    59.197251     496.6368   -7050.4952   -6553.8584   0.74780884 
   74200    38.196416    15.646051    486.28008   -7047.2043   -6560.9242   0.74780884 
   74300    39.694595    39.472617    505.35347   -7056.8673   -6551.5138   0.74780884 
   74400    37.967869    12.321114    483.37045   -7058.1137   -6574.7433   0.74780884 
   74500    38.364518    28.861352     488.4202   -7062.2837   -6573.8635   0.74780884 
   74600    38.982009   -15.708436     496.2815   -7067.2467   -6570.9652   0.74780884 
   74700    39.624702    19.379344    504.46366    -7049.818   -6545.3543   0.74780884 
   74800    38.937517    22.172416    495.71507   -7040.5999   -6544.8848   0.74780884 
   74900    39.333082   -3.5545647    500.75103   -7047.8466   -6547.0956   0.74780884 
   75000    39.492514    62.462542    502.78077    -7055.405   -6552.6243   0.74780884 
   75100    39.344833    32.693626    500.90063   -7052.6354   -6551.7348   0.74780884 
   75200    40.205477    -2.299777    511.85752   -7061.4049   -6549.5474   0.74780884 
   75300     39.04014    8.3933633    497.02158   -7046.4152   -6549.3936   0.74780884 
   75400    39.984364    27.018218    509.04252    -7057.238   -6548.1955   0.74780884 
   75500    39.254233    19.426293     499.7472   -7053.2399   -6553.4927   0.74780884 
   75600    38.562571    42.464978    490.94163   -7061.3015   -6570.3599   0.74780884 
   75700    39.026637    59.962749    496.84967   -7066.4642   -6569.6145   0.74780884 
   75800    39.755047    96.963168    506.12309   -7048.1334   -6542.0103   0.74780884 
   75900     39.28818    66.579488    500.17937   -7051.0811   -6550.9018   0.74780884 
   76000    38.116862    30.473188    485.26728   -7062.3217   -6577.0545   0.74780884 
   76100    39.161574    29.209092    498.56756   -7064.3333   -6565.7658   0.74780884 
   76200    38.860928    39.245539    494.74002   -7058.2568   -6563.5167   0.74780884 
   76300    40.145583     70.50766    511.09501    -7043.321    -6532.226   0.74780884 
   76400     39.43062    29.506173    501.99279   -7056.2988   -6554.3061   0.74780884 
   76500    39.095784    52.111555    497.72998    -7031.554   -6533.8241   0.74780884 
   76600    39.626369    38.079044    504.48487   -7055.3055   -6550.8206   0.74780884 
   76700    38.715156    8.9522305    492.88419     -7050.86   -6557.9758   0.74780884 
   76800    39.448222    84.513972    502.21688   -7058.6383   -6556.4214   0.74780884 
   76900    39.752372    22.554485    506.08903   -7065.7514   -6559.6624   0.74780884 
   77000    38.654386     92.48385    492.11052   -7051.3383   -6559.2278   0.74780884 
   77100    40.570728    28.534735    516.50755   -7050.8441   -6534.3365   0.74780884 
   77200    40.085649     34.20155    510.33199   -7051.2757   -6540.9438   0.74780884 
   77300    41.531711     57.86744    528.74186    -7041.902   -6513.1601   0.74780884 
   77400    40.166798    25.166153     511.3651   -7071.3609   -6559.9958   0.74780884 
   77500    40.038667    49.271209    509.73386   -7052.6817   -6542.9479   0.74780884 
   77600    39.975328    75.339914    508.92749   -7072.0245    -6563.097   0.74780884 
   77700    41.110087    53.097238    523.37415   -7065.2714   -6541.8972   0.74780884 
   77800    38.862995    12.708159    494.76633   -7071.2416   -6576.4753   0.74780884 
   77900    40.270332    28.863555     512.6832   -7056.2152    -6543.532   0.74780884 
   78000    40.652087    10.506193    517.54334   -7064.0912   -6546.5479   0.74780884 
   78100    40.394627    30.912016     514.2656   -7037.4442   -6523.1786   0.74780884 
   78200    40.705422    30.597582    518.22234   -7043.8407   -6525.6184   0.74780884 
   78300     40.34041    12.332967    513.57536    -7059.365   -6545.7896   0.74780884 
   78400    39.904767    37.017696    508.02917   -7044.8115   -6536.7824   0.74780884 
   78500    40.759687     23.04796     518.9132     -7053.13   -6534.2168   0.74780884 
   78600     41.32996    30.244113    526.17337   -7048.6239   -6522.4505   0.74780884 
   78700    39.260756    35.969751    499.83025   -7044.2212    -6544.391   0.74780884 
   78800    40.275315    24.334203    512.74663   -7046.3883   -6533.6417   0.74780884 
   78900    40.699063    51.241158    518.14139   -7056.7737   -6538.6323   0.74780884 
   79000    40.668106    54.872536    517.74727   -7050.1926   -6532.4453   0.74780884 
   79100    42.337715    52.091078    539.00313   -7057.3596   -6518.3565   0.74780884 
   79200     39.16017    20.475298    498.54968   -7025.8618   -6527.3121   0.74780884 
   79300    40.189608    45.192159    511.65549   -7047.3664   -6535.7109   0.74780884 
   79400    41.717937    52.261819    531.11271   -7053.7418   -6522.6291   0.74780884 
   79500    40.381395    39.659984    514.09715    -7046.917   -6532.8198   0.74780884 
   79600    40.989375   -3.1590423    521.83737   -7058.2305   -6536.3932   0.74780884 
   79700    39.884463    9.0691262    507.77068   -7030.7963   -6523.0256   0.74780884 
   79800    41.255429    64.156618    525.22451   -7039.0709   -6513.8464   0.74780884 
   79900    42.874726    25.605372    545.83984   -7050.8809    -6505.041   0.74780884 
   80000    42.405609    43.985541    539.86749   -7025.6327   -6485.7652   0.74780884 
   80100    41.905558    23.237555    533.50133   -7044.1211   -6510.6198   0.74780884 
   80200    41.371828    59.133542    526.70638   -7036.5581   -6509.8517   0.74780884 
   80300    40.750002    6.2751055     518.7899   -7048.8205   -6530.0306   0.74780884 
   80400    41.236004    33.962048    524.97721    -7025.859   -6500.8818   0.74780884 
   80500    40.356516   -20.093372    513.78041   -7062.9231   -6549.1427   0.74780884 
   80600    40.849183    45.701331    520.05257   -7056.7428   -6536.6902   0.74780884 
   80700    40.240161    52.558728    512.29909    -7033.701   -6521.4019   0.74780884 
   80800    40.214587   -2.5420893    511.97351   -7047.0547   -6535.0812   0.74780884 
   80900    41.155286    52.207452    523.94958   -7034.6796     -6510.73   0.74780884 
   81000      41.4237    1.8720257    527.36677   -7043.3038    -6515.937   0.74780884 
   81100    41.342807   -7.8981206    526.33692    -7044.874    -6518.537   0.74780884 
   81200    41.363839    27.089491    526.60468   -7050.0751   -6523.4704   0.74780884 
   81300    40.715625    31.164712    518.35224    -7028.939   -6510.5868   0.74780884 
   81400    41.187092    17.315887    524.35451   -7060.6861   -6536.3316   0.74780884 
   81500    40.409248    16.366779    514.45174   -7050.9611   -6536.5093   0.74780884 
   81600    41.286466    29.615331    525.61963   -7044.6059   -6518.9862   0.74780884 
   81700    41.470466    52.205996    527.96216   -7045.8467   -6517.8846   0.74780884 
   81800    41.851282    23.533575    532.81034   -7044.1988   -6511.3884   0.74780884 
   81900    41.336149    17.619117    526.25216   -7059.1967   -6532.9445   0.74780884 
   82000    40.110842    5.8897486    510.65273   -7058.9016   -6548.2489   0.74780884 
   82100    39.761283    51.221213    506.20248   -7054.0728   -6547.8704   0.74780884 
   82200    41.518518   -50.823667     528.5739   -7057.5544   -6528.9805   0.74780884 
   82300    41.206284    47.910388    524.59884   -7027.5003   -6502.9015   0.74780884 
   82400    41.178497    22.630004    524.24508    -7037.225     -6512.98   0.74780884 
   82500    42.244283    26.783415    537.81365   -7031.2361   -6493.4225   0.74780884 
   82600    41.051288    44.263954    522.62558   -7048.4122   -6525.7866   0.74780884 
   82700    41.311041    12.126114    525.93251   -7047.3897   -6521.4572   0.74780884 
   82800    42.412151     38.51923    539.95078   -7043.7366   -6503.7858   0.74780884 
   82900    41.878231    22.647841    533.15342   -7047.9311   -6514.7777   0.74780884 
   83000    41.531273     55.55153    528.73628   -7052.7642   -6524.0279   0.74780884 
   83100    42.747255   -7.8123309      544.217   -7054.2095   -6509.9925   0.74780884 
   83200    41.461352    3.9558553    527.84612   -7044.8212   -6516.9751   0.74780884 
   83300    41.379992    37.812447    526.81033   -7049.8813    -6523.071   0.74780884 
   83400    40.415131    25.745681    514.52664   -7036.7135   -6522.1869   0.74780884 
   83500    41.555672    39.031949    529.04691   -7045.5654   -6516.5185   0.74780884 
   83600    41.096476    52.709775    523.20087   -7038.7739    -6515.573   0.74780884 
   83700    41.685831    29.857017    530.70398   -7052.3472   -6521.6432   0.74780884 
   83800    43.030739    40.483927    547.82605   -7037.8419   -6490.0158   0.74780884 
   83900     41.76667    12.605582    531.73313   -7042.8844   -6511.1513   0.74780884 
   84000    41.151994   -6.0829878    523.90767   -7034.5041   -6510.5965   0.74780884 
   84100    41.601615    29.932628    529.63182   -7057.3884   -6527.7566   0.74780884 
   84200    42.217538    14.476882    537.47315   -7049.1287   -6511.6556   0.74780884 
   84300    40.965979    41.125206     521.5395   -7040.3577   -6518.8182   0.74780884 
   84400    42.742797    15.304178    544.16025   -7045.4702   -6501.3099   0.74780884 
   84500    41.390788    34.490496    526.94776   -7047.3732   -6520.4254   0.74780884 
   84600    41.886319     19.81711    533.25639   -7031.0529   -6497.7965   0.74780884 
   84700    40.720236   -6.0592373    518.41094   -7053.5208   -6535.1098   0.74780884 
   84800    43.075086    9.6541279    548.39063   -7029.4778   -6481.0872   0.74780884 
   84900     41.80727   -4.7763405    532.25001   -7042.7473   -6510.4973   0.74780884 
   85000     42.97822    34.868916    547.15743   -7046.4213   -6499.2638   0.74780884 
   85100    43.009629    74.372713     547.5573   -7052.2924   -6504.7351   0.74780884 
   85200    42.224456     25.42806    537.56122   -7045.1563   -6507.5951   0.74780884 
   85300    42.382718    14.063931    539.57607   -7055.0585   -6515.4824   0.74780884 
   85400    42.490721    25.644361    540.95106   -7035.3002   -6494.3491   0.74780884 
   85500    42.661193    52.995892    543.12134   -7031.1655   -6488.0442   0.74780884 
   85600    41.848162    43.805729    532.77062   -7044.0273   -6511.2567   0.74780884 
   85700    41.987543    7.0841195    534.54508   -7035.2499   -6500.7048   0.74780884 
   85800    42.417172    37.549596    540.01471   -7016.6965   -6476.6818   0.74780884 
   85900      43.1021    24.953235    548.73454   -7035.4927   -6486.7581   0.74780884 
[...]
  179300    270.30011   -53.297901    3441.2015   -4585.7768   -1144.5753   0.74780884 
  179400    265.86255   -36.163707    3384.7067   -4524.1574   -1139.4507   0.74780884 
  179500    272.67113   -4.9086938    3471.3869   -4531.3151   -1059.9282   0.74780884 
  179600     275.8221   -41.875315    3511.5021   -4560.5961   -1049.0941   0.74780884 
  179700    271.01672     -90.4506    3450.3246   -4547.4818   -1097.1571   0.74780884 
  179800    269.32202   -146.11438    3428.7493   -4491.8689   -1063.1196   0.74780884 
  179900     274.4788    -98.86961    3494.4006   -4408.5219   -914.12133   0.74780884 
  180000    274.49695   -17.298377    3494.6315   -4532.1417   -1037.5101   0.74780884 
  180100    274.70266    -13.08637    3497.2505   -4550.5901   -1053.3396   0.74780884 
  180200    273.22131   -30.261792    3478.3913   -4552.8608   -1074.4695   0.74780884 
  180300    275.30531   -47.089207    3504.9228   -4476.9173   -971.99447   0.74780884 
  180400     267.3588   -19.088319    3403.7554   -4451.3185   -1047.5631   0.74780884 
  180500    280.81975   -63.896264    3575.1274    -4568.749   -993.62167   0.74780884 
  180600    267.36837   -37.199966    3403.8774   -4494.9853   -1091.1079   0.74780884 
  180700    274.19372   -56.606407    3490.7712   -4525.7533   -1034.9821   0.74780884 
  180800    278.28228    63.850887    3542.8228   -4528.4816   -985.65879   0.74780884 
  180900    273.68063   -86.961065     3484.239   -4520.0771   -1035.8381   0.74780884 
  181000    270.94979   -119.39176    3449.4725   -4543.0353   -1093.5628   0.74780884 
  181100    274.12381   -146.35189    3489.8811   -4581.8942   -1092.0132   0.74780884 
  181200    275.40875   -113.99496    3506.2397   -4552.4402   -1046.2004   0.74780884 
  181300    271.88726    -33.77903    3461.4075   -4483.4392   -1022.0317   0.74780884 
  181400     275.5622   -139.91587    3508.1933   -4411.4933   -903.30001   0.74780884 
  181500    277.14488   -103.98622    3528.3425   -4462.9034   -934.56088   0.74780884 
  181600     274.6924   -69.126421    3497.1198   -4395.7379   -898.61805   0.74780884 
  181700    276.88036    -123.4563    3524.9749   -4397.6761   -872.70118   0.74780884 
  181800    266.22152   -138.66232    3389.2768   -4443.5964   -1054.3196   0.74780884 
  181900    276.18988   -152.32978    3516.1843   -4451.1073   -934.92298   0.74780884 
  182000    270.69321   -85.401496     3446.206    -4536.122    -1089.916   0.74780884 
  182100    269.80767   -88.794638    3434.9321   -4505.0458   -1070.1137   0.74780884 
  182200    273.63233   -51.060537    3483.6241   -4498.4462   -1014.8221   0.74780884 
  182300    277.69217   -157.30444      3535.31   -4518.6276   -983.31759   0.74780884 
  182400    273.77434   -24.424461     3485.432   -4458.0365   -972.60452   0.74780884 
  182500    265.27972   -74.744261    3377.2867   -4428.5727    -1051.286   0.74780884 
  182600    282.33084   -31.014305    3594.3651   -4514.0729    -919.7078   0.74780884 
  182700    277.00117   -164.66062    3526.5129   -4523.1939   -996.68093   0.74780884 
  182800    276.43957    -93.53024    3519.3632   -4489.1243    -969.7611   0.74780884 
  182900    279.05275   -94.245924    3552.6317   -4527.2941   -974.66246   0.74780884 
  183000    272.19792    -104.1867    3465.3625   -4420.3931   -955.03058   0.74780884 
  183100    269.23687   -125.10717    3427.6653   -4452.2291   -1024.5638   0.74780884 
  183200    275.65015   -101.79216     3509.313   -4557.2669   -1047.9539   0.74780884 
  183300    269.69259    61.516375    3433.4671   -4434.4262   -1000.9591   0.74780884 
  183400    273.10651    -75.60855    3476.9298   -4478.8222   -1001.8924   0.74780884 
  183500    281.06511   -30.757765     3578.251   -4493.9107   -915.65965   0.74780884 
  183600    271.95756   -112.52511    3462.3025   -4425.1804   -962.87786   0.74780884 
  183700     276.3112   -102.13929    3517.7288   -4441.0346   -923.30583   0.74780884 
  183800    275.71355   -64.195531    3510.1202    -4529.465   -1019.3449   0.74780884 
  183900    267.01455   -13.470929    3399.3728   -4402.7238    -1003.351   0.74780884 
  184000      273.926   -58.741658    3487.3628   -4457.8667   -970.50387   0.74780884 
  184100    270.01251   -179.43199      3437.54   -4570.4889   -1132.9488   0.74780884 
  184200    268.69725    -104.1976    3420.7954   -4449.5578   -1028.7625   0.74780884 
  184300    275.97075   -168.34829    3513.3946   -4492.0422    -978.6476   0.74780884 
  184400    279.79024   -68.135558    3562.0206   -4466.5874   -904.56674   0.74780884 
  184500    279.40502   -55.632195    3557.1165   -4400.9578   -843.84139   0.74780884 
  184600    281.02726   -30.122086    3577.7692   -4380.8151   -803.04586   0.74780884 
  184700    277.17844   -159.20032    3528.7698   -4436.0632   -907.29342   0.74780884 
  184800    273.65508    -37.97733    3483.9137   -4460.6571   -976.74343   0.74780884 
  184900    277.11892   -149.66975     3528.012   -4413.3761   -885.36403   0.74780884 
  185000    281.88947    -110.9468     3588.746   -4391.5752   -802.82917   0.74780884 
  185100    275.53701   -4.9855458    3507.8726   -4372.0917   -864.21915   0.74780884 
  185200    283.78829   -32.821356      3612.92   -4495.0146   -882.09456   0.74780884 
  185300    279.94895   -58.151137    3564.0412   -4390.9518   -826.91057   0.74780884 
  185400    279.81391    -32.47525     3562.322   -4384.6218   -822.29978   0.74780884 
  185500    277.69776   -22.762951    3535.3812   -4420.0213   -884.64009   0.74780884 
  185600    282.86908   -58.555054    3601.2175   -4414.8008   -813.58329   0.74780884 
  185700    272.81832   -72.290983    3473.2608   -4485.8226   -1012.5618   0.74780884 
  185800    276.63142   -91.361349    3521.8056   -4358.2764   -836.47082   0.74780884 
  185900    277.19234   -94.703192    3528.9466    -4367.368   -838.42134   0.74780884 
  186000    275.84956   -162.81996    3511.8518   -4381.5683   -869.71649   0.74780884 
  186100    272.05128    5.7887211    3463.4956   -4491.8447    -1028.349   0.74780884 
  186200     283.3997    23.789047    3607.9729    -4506.782   -898.80913   0.74780884 
  186300    280.06476    20.729855    3565.5156   -4440.3248   -874.80917   0.74780884 
  186400    276.94507   -168.45866    3525.7987   -4428.1903   -902.39152   0.74780884 
  186500    277.27095   -33.866972    3529.9475   -4465.8331   -935.88565   0.74780884 
  186600    277.68677     13.91912    3535.2413   -4467.8176   -932.57626   0.74780884 
  186700    274.35843   -24.752687    3492.8681    -4354.463   -861.59493   0.74780884 
  186800    283.67889   -81.478744    3611.5272   -4397.0645   -785.53739   0.74780884 
  186900    283.11715   -13.329314    3604.3757   -4403.9241   -799.54834   0.74780884 
  187000    282.30889   -106.31546    3594.0857   -4393.4424   -799.35668   0.74780884 
  187100    279.60125   -80.181626    3559.6146   -4452.0897   -892.47507   0.74780884 
  187200    273.39575   -76.109846    3480.6121   -4384.2129   -903.60077   0.74780884 
  187300    281.25837   -125.37237    3580.7115   -4444.3101    -863.5986   0.74780884 
  187400    276.55621    -174.4728    3520.8481   -4374.0703   -853.22223   0.74780884 
  187500    279.79393   -135.83317    3562.0677    -4414.546   -852.47837   0.74780884 
  187600      272.315   -127.91677    3466.8531   -4455.9281     -989.075   0.74780884 
  187700    279.35843    -79.50267    3556.5232   -4452.7472   -896.22398   0.74780884 
  187800    282.14669   -64.197556    3592.0208   -4442.7264   -850.70558   0.74780884 
  187900    285.37379    1.9580496    3633.1051    -4470.392   -837.28698   0.74780884 
  188000     282.8927   -13.946337    3601.5183   -4486.1961   -884.67787   0.74780884 
  188100    278.16995   -81.102288    3541.3927   -4455.9632   -914.57048   0.74780884 
  188200     276.5471   -61.363814    3520.7321   -4449.2143   -928.48219   0.74780884 
  188300    284.63444    41.414385    3623.6923    -4561.934   -938.24167   0.74780884 
  188400    279.07141   -14.809601    3552.8692   -4440.7608   -887.89161   0.74780884 
  188500    275.94354   -163.47279    3513.0482   -4430.0941    -917.0459   0.74780884 
  188600    277.74196   -125.91747     3535.944   -4414.0586   -878.11466   0.74780884 
  188700    276.75438   -136.05843     3523.371   -4413.8241   -890.45305   0.74780884 
  188800    281.18247   -151.07966    3579.7452   -4534.6374   -954.89211   0.74780884 
  188900    272.98237    -69.07033    3475.3494   -4453.1854   -977.83599   0.74780884 
  189000    280.94328   -181.86588    3576.7001   -4472.7455   -896.04542   0.74780884 
  189100    276.88074   -149.68477    3524.9797   -4370.7432   -845.76348   0.74780884 
  189200    281.46905   -128.21793    3583.3937   -4473.0566   -889.66296   0.74780884 
  189300     281.3256    24.096799    3581.5674   -4335.3267    -753.7593   0.74780884 
  189400    275.17892   -70.777326    3503.3138   -4406.7288   -903.41497   0.74780884 
  189500    274.24566   -129.86784    3491.4324   -4423.6165   -932.18407   0.74780884 
  189600    277.38213   -83.841055     3531.363   -4426.3534   -894.99041   0.74780884 
  189700    272.51144   -116.43347    3469.3539   -4469.4506   -1000.0967   0.74780884 
  189800    283.26658   -49.782941     3606.278   -4428.9672   -822.68917   0.74780884 
  189900    283.17677   -106.64627    3605.1347     -4366.86   -761.72535   0.74780884 
  190000    275.29006   -60.943677    3504.7287   -4336.9291   -832.20036   0.74780884 
  190100    280.02334   -97.414583    3564.9882   -4301.5145   -736.52628   0.74780884 
  190200    281.62631   -68.081449    3585.3958   -4285.8355   -700.43971   0.74780884 
  190300    279.70369     -113.164    3560.9187   -4342.1935   -781.27478   0.74780884 
  190400    280.93882   -65.812733    3576.6433   -4325.4119   -748.76855   0.74780884 
  190500    282.18281   -194.96175    3592.4806   -4371.5512   -779.07062   0.74780884 
  190600    278.78921   -92.769734    3549.2766   -4409.0701   -859.79358   0.74780884 
  190700    280.96579   -50.424537    3576.9867   -4375.9975   -799.01083   0.74780884 
  190800    285.76498   -149.62002    3638.0854   -4366.6853   -728.59992   0.74780884 
  190900    278.82541    81.913262    3549.7373   -4399.0391   -849.30175   0.74780884 
  191000    283.15434   -115.41187    3604.8491   -4470.3783    -865.5292   0.74780884 
  191100    287.19748   -15.768934    3656.3225   -4386.8525   -730.53007   0.74780884 
  191200    281.43386   -85.503578    3582.9457   -4341.8647   -758.91905   0.74780884 
  191300    282.68291   -32.068505    3598.8474   -4280.6862   -681.83878   0.74780884 
  191400    286.88708   -81.977033    3652.3709   -4317.7922   -665.42133   0.74780884 
  191500    285.06474   -134.30897    3629.1705   -4425.8814   -796.71089   0.74780884 
  191600    279.93273   -43.559568    3563.8347   -4392.4706   -828.63587   0.74780884 
  191700    285.00806    -122.9713    3628.4489    -4360.767   -732.31814   0.74780884 
  191800    280.25905   -37.330146    3567.9891   -4324.3792    -756.3901   0.74780884 
  191900    278.85546   -37.685134      3550.12   -4388.9198   -838.79984   0.74780884 
  192000    284.84605    30.499526    3626.3864   -4350.9422   -724.55584   0.74780884 
  192100     284.8564   -52.166172    3626.5181   -4248.8002   -622.28214   0.74780884 
  192200    292.23112   -47.528227    3720.4061   -4348.0263   -627.62028   0.74780884 
  192300    284.14275   -99.851629    3617.4326   -4302.4969   -685.06435   0.74780884 
  192400    284.16714   -198.04678    3617.7432    -4377.937    -760.1938   0.74780884 
  192500    283.57955   -77.394007    3610.2625   -4375.0756   -764.81309   0.74780884 
  192600    280.68843    -177.8444    3573.4555   -4351.3879   -777.93238   0.74780884 
  192700    283.54566   -58.944336    3609.8311    -4408.999   -799.16791   0.74780884 
  192800    285.31104   -31.020326    3632.3062    -4345.535   -713.22879   0.74780884 
  192900    287.24451   -71.199601    3656.9213   -4384.8336   -727.91234   0.74780884 
  193000    281.37245   -124.76208    3582.1639   -4367.0682   -784.90433   0.74780884 
  193100    280.14808   -151.00303    3566.5763   -4415.4564   -848.88007   0.74780884 
  193200    280.41072   -89.480522    3569.9201   -4342.2712   -772.35111   0.74780884 
  193300    283.66313   -173.74253    3611.3266   -4465.8751   -854.54854   0.74780884 
  193400    284.17077   -39.820692    3617.7894   -4417.1114   -799.32202   0.74780884 
  193500    285.41137    -77.02489    3633.5834    -4452.907   -819.32359   0.74780884 
  193600    281.36685   -88.537103    3582.0925   -4424.4597    -842.3672   0.74780884 
  193700    282.24408   -130.39603    3593.2606   -4432.4015   -839.14085   0.74780884 
  193800    279.14007   -72.871882    3553.7433   -4379.5414   -825.79807   0.74780884 
  193900    278.28259   -60.583424    3542.8267   -4269.8426   -727.01584   0.74780884 
  194000    285.29134     -25.4983    3632.0554   -4410.8211   -778.76571   0.74780884 
  194100    285.92836   -138.90706    3640.1654    -4439.667   -799.50163   0.74780884 
  194200    279.00596   -165.56067    3552.0359   -4339.3916   -787.35562   0.74780884 
  194300    283.21534   -125.23293    3605.6257   -4369.1657   -763.54003   0.74780884 
  194400    284.05713   -81.811187    3616.3426   -4374.1207   -757.77813   0.74780884 
  194500    279.82575   -59.989616    3562.4727   -4264.9714    -702.4987   0.74780884 
  194600    275.82342   0.57357576    3511.5189   -4413.4145   -901.89562   0.74780884 
  194700    283.28634   -64.923283    3606.5297    -4357.093   -750.56331   0.74780884 
  194800    280.98131   -115.00898    3577.1843   -4251.4269    -674.2426   0.74780884 
  194900    282.34003   -56.584724    3594.4822   -4290.6153    -696.1331   0.74780884 
  195000    279.33007   -171.67732    3556.1622   -4445.1624   -889.00026   0.74780884 
  195100    279.84751   -71.283701    3562.7498   -4400.2881   -837.53833   0.74780884 
  195200    279.14275   -175.61413    3553.7775   -4357.9721   -804.19467   0.74780884 
  195300    283.07765   -147.25719    3603.8729   -4410.6806   -806.80775   0.74780884 
  195400     283.1916   -135.23612    3605.3234   -4445.9243   -840.60085   0.74780884 
  195500    280.20274   -82.955332    3567.2722   -4421.6061   -854.33384   0.74780884 
  195600    288.15568   0.64392602    3668.5214   -4337.9558    -669.4344   0.74780884 
  195700    283.12689   -6.3035386    3604.4996   -4386.4429   -781.94326   0.74780884 
  195800    279.38925   -57.065487    3556.9157   -4325.8956   -768.97993   0.74780884 
  195900    287.29484    -21.00257     3657.562   -4320.2558   -662.69387   0.74780884 
  196000    283.46849  -0.57559869    3608.8486   -4386.7307   -777.88217   0.74780884 
  196100    281.83012   -65.363365    3587.9905   -4352.7931   -764.80264   0.74780884 
  196200    288.38522   -65.007304    3671.4437   -4425.0447   -753.60102   0.74780884 
  196300    285.68162   -61.239388     3637.024    -4340.381   -703.35701   0.74780884 
  196400    282.60731   -60.925257    3597.8849   -4399.5677   -801.68283   0.74780884 
  196500    284.00186   -102.69439     3615.639   -4388.4206   -772.78163   0.74780884 
  196600    281.24726   -69.992538      3580.57   -4329.1379   -748.56791   0.74780884 
  196700    286.22579   -133.87973    3643.9519   -4412.6907   -768.73885   0.74780884 
  196800    286.61312    -80.16069     3648.883   -4364.9991   -716.11614   0.74780884 
  196900    282.05063   -183.98524    3590.7978   -4347.5888   -756.79106   0.74780884 
  197000    282.61105    -80.19333    3597.9325   -4365.6223   -767.68979   0.74780884 
  197100    286.26821   -94.609813     3644.492    -4259.095   -614.60303   0.74780884 
  197200    291.15271   -163.37148    3706.6767   -4359.0352   -652.35855   0.74780884 
  197300    275.46692   -134.18712    3506.9803   -4389.6426   -882.66225   0.74780884 
  197400    280.35189   -140.69184    3569.1711   -4321.5531   -752.38206   0.74780884 
  197500    282.54452   -141.32481    3597.0855   -4277.3319   -680.24642   0.74780884 
  197600    289.47501   -52.186902    3685.3179   -4338.2333   -652.91543   0.74780884 
  197700    283.39672    -81.51283    3607.9349   -4460.9384   -853.00351   0.74780884 
  197800    292.24901   -89.930832    3720.6338   -4383.4395   -662.80575   0.74780884 
  197900    284.19479   -117.69974    3618.0951   -4267.3789   -649.28379   0.74780884 
  198000    288.97862   -62.800248    3678.9983   -4267.0562   -588.05788   0.74780884 
  198100    284.90553   -75.265264    3627.1436   -4326.1566   -699.01299   0.74780884 
  198200    284.10975   -139.15406    3617.0125   -4252.9822   -635.96965   0.74780884 
  198300    288.44354   -138.18315    3672.1862   -4380.7606   -708.57446   0.74780884 
  198400    292.68971   -164.75746    3726.2443   -4311.9173   -585.67299   0.74780884 
  198500    285.12243   -96.928657     3629.905   -4344.8237   -714.91867   0.74780884 
  198600    283.74907    14.108701    3612.4207   -4277.8043   -665.38355   0.74780884 
  198700    281.96336   -121.66494    3589.6867   -4255.5249   -665.83822   0.74780884 
  198800    282.41015   -82.155331    3595.3749   -4247.2136   -651.83872   0.74780884 
  198900     283.1747   -42.193367    3605.1083   -4291.3406    -686.2323   0.74780884 
  199000    278.79108   -102.65098    3549.3003   -4255.9425   -706.64227   0.74780884 
  199100    288.43607   -95.186357    3672.0911   -4313.7245    -641.6334   0.74780884 
  199200    283.38534   -124.43973      3607.79   -4255.4307   -647.64068   0.74780884 
  199300    290.34754   -233.45462     3696.426   -4298.9659   -602.53992   0.74780884 
  199400    286.00181   -106.39259    3641.1004   -4218.6064   -577.50601   0.74780884 
  199500    290.60841   -51.610617    3699.7472   -4347.3426   -647.59539   0.74780884 
  199600    288.78512   -11.209186    3676.5349   -4250.6463   -574.11139   0.74780884 
  199700    289.89352   -77.788635     3690.646   -4405.5303   -714.88433   0.74780884 
  199800    289.52489   -183.47752    3685.9529   -4346.7408   -660.78786   0.74780884 
  199900    288.46715   -132.81978    3672.4867   -4313.7227   -641.23599   0.74780884 
  200000    291.94396   -64.597445    3716.7501   -4349.8108   -633.06068   0.74780884 
  200100    288.60058   -61.441327    3674.1854   -4225.7774   -551.59199   0.74780884 
Loop time of 279.879 on 12 procs for 100000 steps with 4272 atoms

Performance: 30.871 ns/day, 0.777 hours/ns, 357.298 timesteps/s
99.3% CPU use with 12 MPI tasks x 1 OpenMP threads

MPI task timing breakdown:
Section |  min time  |  avg time  |  max time  |%varavg| %total
---------------------------------------------------------------
Pair    | 183.49     | 196.58     | 203.9      |  44.0 | 70.24
Bond    | 10.4       | 10.998     | 11.834     |  12.0 |  3.93
Kspace  | 52.473     | 59.646     | 72.391     |  76.8 | 21.31
Neigh   | 0.63824    | 0.63864    | 0.63899    |   0.0 |  0.23
Comm    | 6.2578     | 7.8577     | 9.1033     |  29.2 |  2.81
Output  | 0.038697   | 0.051317   | 0.18907    |  18.3 |  0.02
Modify  | 2.7956     | 2.9065     | 3.1225     |   5.8 |  1.04
Other   |            | 1.201      |            |       |  0.43

Nlocal:    356 ave 388 max 345 min
Histogram: 7 1 0 0 2 0 1 0 0 1
Nghost:    2846.25 ave 2895 max 2810 min
Histogram: 2 1 0 2 3 2 0 0 0 2
Neighs:    181838 ave 194535 max 175501 min
Histogram: 4 2 0 2 0 0 3 0 0 1

Total # of neighbors = 2182062
Ave neighs/atom = 510.782
Ave special neighs/atom = 5.39326
Neighbor list builds = 150
Dangerous builds = 0
System init for write_restart ...
Ewald initialization ...
WARNING: Using 12-bit tables for long-range coulomb (../kspace.cpp:321)
  G vector (1/distance) = 0.112517
  estimated absolute RMS force accuracy = 0.0417508
  estimated relative force accuracy = 0.000125731
  KSpace vectors: actual max1d max3d = 215 5 665
                  kxmax kymax kzmax  = 4 4 5
Total wall time: 0:09:18
