LAMMPS (31 Mar 2017)
  using 1 OpenMP thread(s) per MPI task
Reading data file ...
  orthogonal box = (0 0 0) to (81.6 70.667 100)
  4 by 3 by 1 MPI processor grid
  reading atoms ...
  4272 atoms
  scanning bonds ...
  1 = max bonds/atom
  scanning angles ...
  6 = max angles/atom
  scanning dihedrals ...
  9 = max dihedrals/atom
  reading bonds ...
  2816 bonds
  reading angles ...
  4864 angles
  reading dihedrals ...
  3840 dihedrals
Finding 1-2 1-3 1-4 neighbors ...
  special bond factors lj:   0          0          0.5       
  special bond factors coul: 0          0          0.5       
  4 = max # of 1-2 neighbors
  6 = max # of 1-3 neighbors
  9 = max # of 1-4 neighbors
  11 = max # of special neighbors
1200 atoms in group gold
256 atoms in group thiol
3072 atoms in group dynamic
Ewald initialization ...
WARNING: System is not charge neutral, net charge = 1.024e-05 (../kspace.cpp:302)
WARNING: Using 12-bit tables for long-range coulomb (../kspace.cpp:321)
  G vector (1/distance) = 0.112517
  estimated absolute RMS force accuracy = 0.0417508
  estimated relative force accuracy = 0.000125731
  KSpace vectors: actual max1d max3d = 215 5 665
                  kxmax kymax kzmax  = 4 4 5
Neighbor list info ...
  update every 1 steps, delay 0 steps, check yes
  max neighbors/atom: 30000, page size: 300000
  master list distance cutoff = 22
  ghost atom cutoff = 22
  binsize = 11, bins = 8 7 10
  3 neighbor lists, perpetual/occasional/extra = 3 0 0
  (1) pair lj/cut/coul/long, perpetual, skip from (3)
      attributes: half, newton on
      pair build: skip
      stencil: none
      bin: none
  (2) pair morse, perpetual, skip from (3)
      attributes: half, newton on
      pair build: skip
      stencil: none
      bin: none
  (3) neighbor class addition, perpetual
      attributes: half, newton on
      pair build: half/bin/newton
      stencil: half/bin/3d/newton
      bin: standard
Setting up cg style minimization ...
  Unit style    : real
Per MPI rank memory allocation (min/avg/max) = 23.83 | 23.83 | 23.84 Mbytes
Step Temp Press KinEng PotEng TotEng Density 
       0            0   -956.31162            0   -4149.3976   -4149.3976   0.74780884 
     100            0   -35.935483            0   -8364.6604   -8364.6604   0.74780884 
Loop time of 0.632235 on 12 procs for 100 steps with 4272 atoms

98.1% CPU use with 12 MPI tasks x 1 OpenMP threads

Minimization stats:
  Stopping criterion = max iterations
  Energy initial, next-to-last, final = 
        -4149.39763639     -8356.99972704     -8364.66041901
  Force two-norm initial, final = 648.45 85.9176
  Force max component initial, final = 31.4522 11.5307
  Final line search alpha, max atom move = 0.00433077 0.0499371
  Iterations, force evaluations = 100 197

MPI task timing breakdown:
Section |  min time  |  avg time  |  max time  |%varavg| %total
---------------------------------------------------------------
Pair    | 0.41078    | 0.4516     | 0.4722     |   2.6 | 71.43
Bond    | 0.020902   | 0.022755   | 0.025262   |   1.1 |  3.60
Kspace  | 0.11406    | 0.1362     | 0.1761     |   4.5 | 21.54
Neigh   | 0          | 0          | 0          |   0.0 |  0.00
Comm    | 0.013064   | 0.015182   | 0.018211   |   1.4 |  2.40
Output  | 3.1948e-05 | 4.0968e-05 | 0.00013399 |   0.0 |  0.01
Modify  | 0.00017643 | 0.00018807 | 0.00020504 |   0.0 |  0.03
Other   |            | 0.006266   |            |       |  0.99

Nlocal:    356 ave 372 max 337 min
Histogram: 3 1 0 0 0 1 2 1 1 3
Nghost:    2850.5 ave 2882 max 2822 min
Histogram: 2 0 1 2 1 2 1 1 1 1
Neighs:    177872 ave 184714 max 166033 min
Histogram: 1 3 0 0 0 0 0 2 1 5

Total # of neighbors = 2134458
Ave neighs/atom = 499.639
Ave special neighs/atom = 5.39326
Neighbor list builds = 0
Dangerous builds = 0
Ewald initialization ...
WARNING: Using 12-bit tables for long-range coulomb (../kspace.cpp:321)
  G vector (1/distance) = 0.112517
  estimated absolute RMS force accuracy = 0.0417508
  estimated relative force accuracy = 0.000125731
  KSpace vectors: actual max1d max3d = 215 5 665
                  kxmax kymax kzmax  = 4 4 5
Setting up Verlet run ...
  Unit style    : real
  Current step  : 100
  Time step     : 1
Per MPI rank memory allocation (min/avg/max) = 22.72 | 22.72 | 22.73 Mbytes
Step Temp Press KinEng PotEng TotEng Density 
     100            0   -35.935483            0   -8364.6604   -8364.6604   0.74780884 
     200    1.8958687   -69.774728    24.136379   -8422.1087   -8397.9723   0.74780884 
     300    1.7401329   -97.806434    22.153701   -8459.4111   -8437.2574   0.74780884 
     400    1.3830891   -114.69135    17.608162   -8480.2562    -8462.648   0.74780884 
     500    1.2721234   -126.87249    16.195454   -8493.5324    -8477.337   0.74780884 
     600    1.3859705   -132.50811    17.644845    -8503.777   -8486.1321   0.74780884 
     700    1.4613568   -135.85281    18.604591   -8513.1134   -8494.5088   0.74780884 
     800    1.5726835   -132.86286    20.021896   -8518.2171   -8498.1952   0.74780884 
     900     1.725572   -135.66186    21.968326     -8521.44   -8499.4717   0.74780884 
    1000    1.9076846   -134.62479    24.286809   -8525.3605   -8501.0736   0.74780884 
    1100    2.1407429   -131.12772    27.253883   -8528.3889    -8501.135   0.74780884 
    1200    2.4090145    -128.5414    30.669259   -8532.0368   -8501.3675   0.74780884 
    1300    2.5770093   -131.58288    32.808008   -8534.4358   -8501.6277   0.74780884 
    1400    2.7560019    -133.9807    35.086769   -8533.8509   -8498.7641   0.74780884 
    1500    3.0314984   -142.22224    38.594126    -8534.351   -8495.7569   0.74780884 
    1600    3.0490154   -137.03309    38.817136   -8534.9473   -8496.1301   0.74780884 
    1700    3.2990137   -130.02533    41.999875   -8534.2975   -8492.2976   0.74780884 
    1800    3.5662786   -133.43952    45.402435   -8533.6006   -8488.1982   0.74780884 
    1900    3.8285988   -127.65184    48.742043   -8532.1988   -8483.4568   0.74780884 
    2000    3.9961231   -119.84593    50.874802   -8530.3918   -8479.5169   0.74780884 
    2100    4.1044513   -102.54507    52.253933   -8531.3159   -8479.0619   0.74780884 
    2200    4.3440678   -120.16573    55.304499    -8528.684   -8473.3795   0.74780884 
    2300    4.5054238   -128.97636    57.358729   -8531.4849   -8474.1262   0.74780884 
    2400    4.7677576   -110.10107    60.698511   -8530.7674   -8470.0689   0.74780884 
    2500    4.9569959   -101.69437    63.107712    -8528.684   -8465.5763   0.74780884 
    2600    5.2468919   -98.680685     66.79839   -8525.6343   -8458.8359   0.74780884 
    2700    5.4214349    -119.0257    69.020503   -8526.1109   -8457.0904   0.74780884 
    2800    5.5311965   -122.12584    70.417883   -8523.3149   -8452.8971   0.74780884 
    2900    5.6720029   -115.23609    72.210495     -8521.73   -8449.5195   0.74780884 
    3000    5.9416936   -113.87131    75.643937    -8521.718   -8446.0741   0.74780884 
    3100    6.2591119    -118.0856    79.685002   -8518.5928   -8438.9078   0.74780884 
    3200    6.1366892   -109.20359    78.126433   -8515.4638   -8437.3374   0.74780884 
    3300    6.5946315   -83.638452    83.956516   -8514.4079   -8430.4514   0.74780884 
    3400    6.6192471   -106.97548    84.269898   -8515.3161   -8431.0462   0.74780884 
    3500    6.8638883   -86.559045    87.384434    -8509.974   -8422.5896   0.74780884 
    3600    6.9638716   -102.62446    88.657326   -8508.6972   -8420.0399   0.74780884 
    3700    7.1465778   -112.97468    90.983366   -8508.1037   -8417.1204   0.74780884 
    3800     7.292645   -113.13831    92.842954   -8508.1105   -8415.2676   0.74780884 
    3900    7.5709566     -126.219    96.386149   -8506.9077   -8410.5216   0.74780884 
    4000    7.8631064   -114.13224    100.10552   -8502.4411   -8402.3356   0.74780884 
    4100    7.7835443   -100.62701    99.092612   -8501.2694   -8402.1768   0.74780884 
    4200    7.9168388   -106.35166    100.78959   -8500.1971   -8399.4075   0.74780884 
    4300    7.9473437   -100.86508    101.17795   -8498.6337   -8397.4557   0.74780884 
    4400    8.3094504   -93.276718    105.78794   -8498.7763   -8392.9883   0.74780884 
    4500    8.4576207   -93.993197    107.67431   -8492.0404   -8384.3661   0.74780884 
    4600    8.4555371   -81.571018    107.64778   -8493.7649   -8386.1172   0.74780884 
    4700    8.6566286   -100.94364    110.20788    -8494.622   -8384.4141   0.74780884 
    4800    8.9549384    -98.84214    114.00568    -8491.754   -8377.7484   0.74780884 
    4900    9.0709454   -117.27073    115.48257   -8489.3142   -8373.8316   0.74780884 
    5000     8.877654   -92.267169    113.02177   -8487.4975   -8374.4757   0.74780884 
    5100    9.1687132   -83.371156    116.72725   -8483.8431   -8367.1158   0.74780884 
    5200    9.5454936   -98.071582    121.52406    -8484.051   -8362.5269   0.74780884 
    5300    9.5558762   -89.914758    121.65624   -8484.9067   -8363.2504   0.74780884 
    5400    9.6023322   -100.29176    122.24767   -8482.4725   -8360.2249   0.74780884 
    5500    9.6930671   -104.02045    123.40282   -8479.3984   -8355.9956   0.74780884 
    5600    9.8171385   -99.154152    124.98238    -8480.876   -8355.8936   0.74780884 
    5700    10.014187   -102.21565    127.49101   -8478.3758   -8350.8848   0.74780884 
    5800    10.077805   -106.91233    128.30094   -8479.6767   -8351.3758   0.74780884 
    5900    10.046917   -104.27446    127.90769   -8474.5345   -8346.6268   0.74780884 
    6000     10.39514   -101.27039    132.34094   -8475.0335   -8342.6926   0.74780884 
    6100    10.377073   -89.642005    132.11093   -8467.7851   -8335.6742   0.74780884 
    6200    10.693356   -96.382166    136.13754   -8469.6391   -8333.5016   0.74780884 
    6300    10.611796    -88.76022     135.0992   -8467.3375   -8332.2383   0.74780884 
    6400    10.873803   -96.950316    138.43482   -8468.3281   -8329.8933   0.74780884 
    6500    10.761697   -91.026523    137.00759   -8463.0577   -8326.0501   0.74780884 
    6600    11.093872   -104.28918    141.23652    -8468.468   -8327.2315   0.74780884 
    6700    11.198879   -96.358034    142.57338   -8470.7043   -8328.1309   0.74780884 
    6800    10.887395   -113.51674    138.60786    -8463.676   -8325.0681   0.74780884 
    6900    10.957084    -90.63272    139.49507   -8460.8799   -8321.3848   0.74780884 
    7000    10.846472   -81.256746    138.08687   -8464.0909    -8326.004   0.74780884 
    7100    11.386794   -84.190003    144.96572   -8465.5083   -8320.5426   0.74780884 
    7200    11.646256   -74.408874    148.26895   -8457.7475   -8309.4785   0.74780884 
    7300    11.624166   -84.909392    147.98772   -8460.6719   -8312.6841   0.74780884 
    7400    11.865554   -97.030889    151.06084    -8457.437   -8306.3761   0.74780884 
    7500    11.869154   -90.185914    151.10667   -8458.9866   -8307.8799   0.74780884 
    7600    12.038642    -66.91812    153.26443   -8457.8791   -8304.6147   0.74780884 
    7700    12.022872   -88.575657    153.06367   -8454.4702   -8301.4066   0.74780884 
    7800    11.905238   -91.926374    151.56606   -8455.2915   -8303.7254   0.74780884 
    7900    12.210791   -91.217908    155.45606   -8455.2026   -8299.7465   0.74780884 
    8000    12.056931    -90.76595    153.49726   -8451.4053    -8297.908   0.74780884 
    8100    12.306645   -101.76459    156.67639   -8453.7381   -8297.0617   0.74780884 
    8200    12.412118   -98.675183    158.01917   -8447.4392   -8289.4201   0.74780884 
    8300    12.233466   -84.617609    155.74475   -8453.5227    -8297.778   0.74780884 
    8400    12.290034   -75.415162    156.46491    -8446.328   -8289.8631   0.74780884 
    8500    12.423499   -91.657415    158.16406    -8448.117   -8289.9529   0.74780884 
    8600    12.289252   -102.20556    156.45496   -8452.4685   -8296.0135   0.74780884 
    8700    12.825873   -110.08471    163.28669    -8445.826   -8282.5393   0.74780884 
    8800     12.87406   -87.591477    163.90017   -8444.4824   -8280.5823   0.74780884 
    8900    13.142127   -73.314822    167.31294   -8446.2138   -8278.9009   0.74780884 
    9000    12.993001   -86.610132    165.41441   -8438.8644     -8273.45   0.74780884 
    9100    13.227695   -70.542967    168.40231   -8440.9707   -8272.5684   0.74780884 
    9200    12.837094   -69.600275    163.42955   -8441.2783   -8277.8488   0.74780884 
    9300    13.401969   -97.357838      170.621   -8440.8274   -8270.2064   0.74780884 
    9400    13.660914   -90.958107    173.91764   -8442.3588   -8268.4411   0.74780884 
    9500    13.672797   -114.82728    174.06892   -8440.2818   -8266.2129   0.74780884 
    9600    13.468159   -80.861095    171.46366   -8436.3473   -8264.8836   0.74780884 
    9700    13.667643   -93.247915    174.00331   -8438.5982   -8264.5949   0.74780884 
    9800    13.453017   -94.740863    171.27089    -8437.642   -8266.3712   0.74780884 
    9900    13.863804   -82.110945    176.50064   -8440.0084   -8263.5077   0.74780884 
   10000    13.977735   -85.281986     177.9511   -8436.4162   -8258.4651   0.74780884 
   10100    13.656622   -80.572592      173.863   -8431.0502   -8257.1872   0.74780884 
   10200    13.848958   -120.06475    176.31163   -8428.3806    -8252.069   0.74780884 
   10300    13.843397   -113.59065    176.24083    -8434.247   -8258.0062   0.74780884 
   10400    14.062428   -90.776278    179.02933   -8433.5852   -8254.5559   0.74780884 
   10500    14.657491   -59.168202     186.6051   -8429.7114   -8243.1063   0.74780884 
   10600    14.306543   -85.652227    182.13717   -8432.1952    -8250.058   0.74780884 
   10700      14.4648   -86.097977    184.15195   -8432.3374   -8248.1855   0.74780884 
   10800    14.327566   -107.64908    182.40481   -8428.4969   -8246.0921   0.74780884 
   10900    14.424155   -115.64879     183.6345   -8428.6133   -8244.9788   0.74780884 
   11000    14.181637   -102.84778    180.54698   -8428.8175   -8248.2705   0.74780884 
   11100    14.533377   -118.07082      185.025   -8428.7135   -8243.6885   0.74780884 
   11200    14.607104   -77.884196    185.96362   -8430.4575   -8244.4938   0.74780884 
   11300    14.948729   -78.690962    190.31286   -8422.4709    -8232.158   0.74780884 
   11400    14.377398   -93.138634    183.03922   -8420.8974   -8237.8581   0.74780884 
   11500    14.678547   -90.991951    186.87317   -8426.7223   -8239.8491   0.74780884 
   11600    14.998577   -105.06729    190.94749   -8419.5147   -8228.5672   0.74780884 
   11700    15.226389   -111.48814    193.84777   -8423.2019   -8229.3541   0.74780884 
   11800     15.09226   -97.831644    192.14016   -8417.3621   -8225.2219   0.74780884 
   11900    15.037074   -70.950733    191.43759    -8412.733   -8221.2954   0.74780884 
   12000    14.844085   -95.725536    188.98063   -8417.2253   -8228.2447   0.74780884 
   12100    15.145988   -92.557375    192.82417   -8415.2805   -8222.4563   0.74780884 
   12200    15.364294   -108.03696    195.60344   -8420.9241   -8225.3207   0.74780884 
   12300    15.024927   -97.147339    191.28295   -8410.3562   -8219.0732   0.74780884 
   12400    16.041374   -83.259769    204.22336   -8413.7921   -8209.5687   0.74780884 
   12500    15.464535   -112.75685    196.87961   -8416.1517   -8219.2721   0.74780884 
   12600    15.585996   -91.609556    198.42593   -8414.0094   -8215.5834   0.74780884 
   12700    15.624081   -71.036901     198.9108   -8409.9215   -8211.0107   0.74780884 
   12800    15.598088   -84.593668    198.57988   -8412.3404   -8213.7605   0.74780884 
   12900    16.082939   -95.693452    204.75254   -8410.1318   -8205.3793   0.74780884 
   13000    16.002137   -94.389205    203.72384   -8414.6054   -8210.8816   0.74780884 
   13100    15.832618   -94.711098    201.56569   -8408.8342   -8207.2685   0.74780884 
   13200    15.504012   -101.06241    197.38219   -8409.1186   -8211.7364   0.74780884 
   13300    16.006238   -92.103786    203.77606    -8407.691    -8203.915   0.74780884 
   13400    16.307818   -100.56988    207.61547   -8403.7064   -8196.0909   0.74780884 
   13500    16.237662   -97.338031    206.72232   -8398.8991   -8192.1768   0.74780884 
   13600    16.075495   -96.631344    204.65776   -8408.0433   -8203.3855   0.74780884 
   13700    16.088881   -102.24579    204.82819   -8409.1072    -8204.279   0.74780884 
   13800    16.626115   -81.442655    211.66773   -8407.4624   -8195.7947   0.74780884 
   13900    16.217661   -111.66419    206.46769   -8402.5528   -8196.0851   0.74780884 
   14000    16.685055    -86.80071     212.4181    -8399.767   -8187.3489   0.74780884 
   14100    16.584802   -73.992063    211.14177   -8403.4665   -8192.3247   0.74780884 
   14200    16.989585    -95.59033    216.29509   -8400.1057   -8183.8106   0.74780884 
   14300    16.613343    -106.5565    211.50513   -8405.4432    -8193.938   0.74780884 
   14400    16.708276   -105.81908    212.71373   -8402.3415   -8189.6278   0.74780884 
   14500    16.746371   -102.41038    213.19871   -8394.5127    -8181.314   0.74780884 
   14600    16.836585   -71.387301    214.34723   -8399.3413   -8184.9941   0.74780884 
   14700    16.966661   -103.66378    216.00323   -8391.2821   -8175.2789   0.74780884 
   14800    16.934275   -81.486213    215.59092    -8387.936   -8172.3451   0.74780884 
   14900    17.271293   -86.798673    219.88152   -8401.3132   -8181.4317   0.74780884 
   15000    16.641125   -88.411293    211.85883   -8399.2039   -8187.3451   0.74780884 
   15100    16.906973   -86.905365    215.24335   -8394.6107   -8179.3674   0.74780884 
   15200    17.385265   -92.695834     221.3325   -8391.3802   -8170.0477   0.74780884 
   15300    17.153404   -96.792875    218.38067   -8391.7688   -8173.3881   0.74780884 
   15400    16.701609   -86.241512    212.62885   -8391.2632   -8178.6343   0.74780884 
   15500    17.613723   -79.890323    224.24101   -8390.0619   -8165.8209   0.74780884 
   15600    17.488024   -71.060331    222.64073   -8389.8885   -8167.2478   0.74780884 
   15700    17.679519   -58.862924    225.07865   -8387.8514   -8162.7727   0.74780884 
   15800     17.11801    -86.93859    217.93006   -8386.6558   -8168.7257   0.74780884 
   15900    17.311162   -78.547217    220.38909   -8392.4751    -8172.086   0.74780884 
   16000    17.241149   -67.562336    219.49775   -8393.8662   -8174.3684   0.74780884 
   16100    17.270614   -70.977463    219.87288   -8388.5072   -8168.6344   0.74780884 
   16200    17.459743   -87.930669    222.28069   -8382.6314   -8160.3507   0.74780884 
   16300    17.401083   -124.43367    221.53388   -8381.2278   -8159.6939   0.74780884 
   16400    17.793379   -78.201095    226.52822   -8382.2058   -8155.6776   0.74780884 
   16500    18.136356    -74.21232    230.89467   -8383.4512   -8152.5565   0.74780884 
   16600    17.841942   -56.906357    227.14647   -8376.8695   -8149.7231   0.74780884 
   16700    18.166275   -79.284373    231.27557   -8377.3374   -8146.0619   0.74780884 
   16800     18.05869   -96.138246    229.90589   -8381.7358   -8151.8299   0.74780884 
   16900    17.842221   -54.103292    227.15002   -8381.0976   -8153.9476   0.74780884 
   17000    18.138888   -46.742592     230.9269   -8384.8238   -8153.8969   0.74780884 
   17100    18.361235   -76.240967    233.75761   -8375.7174   -8141.9598   0.74780884 
   17200    18.174802    -90.04073    231.38413   -8374.7539   -8143.3697   0.74780884 
   17300    18.350878   -76.588655    233.62575   -8379.4219   -8145.7962   0.74780884 
   17400    18.666165   -78.174071    237.63969   -8375.4719   -8137.8322   0.74780884 
   17500    18.480907   -79.441845    235.28116   -8373.5003   -8138.2191   0.74780884 
   17600    18.562357   -84.013555    236.31811   -8371.0642    -8134.746   0.74780884 
   17700    19.014556   -62.099589    242.07507   -8370.4272   -8128.3521   0.74780884 
   17800    18.671683   -58.589478    237.70993   -8369.8796   -8132.1697   0.74780884 
   17900     18.74191    -84.63124      238.604   -8369.1162   -8130.5122   0.74780884 
   18000    18.825745   -93.459371    239.67131   -8366.6401   -8126.9688   0.74780884 
   18100    18.703029   -86.398287    238.10901   -8362.5068   -8124.3978   0.74780884 
   18200    19.003652   -80.076519    241.93625   -8368.2482    -8126.312   0.74780884 
   18300    18.950254   -69.764954    241.25643   -8370.3124    -8129.056   0.74780884 
   18400    19.332242   -86.046139    246.11954   -8371.4514   -8125.3319   0.74780884 
   18500    18.548749   -71.720015    236.14486   -8366.8751   -8130.7303   0.74780884 
   18600    18.925576   -76.498117    240.94225   -8370.0256   -8129.0833   0.74780884 
   18700     18.94309   -63.324157    241.16524    -8372.217   -8131.0518   0.74780884 
   18800    18.704941   -93.382076    238.13335   -8367.0227   -8128.8894   0.74780884 
   18900    19.237648   -84.659298    244.91526   -8370.6315   -8125.7163   0.74780884 
   19000    18.854034   -70.883888    240.03146    -8366.892   -8126.8606   0.74780884 
   19100    19.532397   -78.685499    248.66772   -8374.4492   -8125.7814   0.74780884 
   19200    18.833391   -62.632907    239.76865   -8361.9186     -8122.15   0.74780884 
   19300     19.22569   -37.498629    244.76302    -8366.582    -8121.819   0.74780884 
   19400    19.042346   -50.561841    242.42887   -8353.7762   -8111.3473   0.74780884 
   19500    19.175508   -67.185013    244.12416   -8355.4234   -8111.2993   0.74780884 
   19600    19.577517   -81.306212    249.24215   -8362.0266   -8112.7845   0.74780884 
   19700     19.13326   -91.364658     243.5863   -8351.4548   -8107.8685   0.74780884 
   19800    19.513326   -71.752313    248.42493   -8351.8427   -8103.4177   0.74780884 
   19900    19.471089   -53.732341     247.8872   -8357.8702    -8109.983   0.74780884 
   20000    19.295582   -68.146413    245.65282   -8359.3713   -8113.7185   0.74780884 
   20100    19.333787   -69.799443    246.13921   -8358.4921   -8112.3529   0.74780884 
   20200    20.058744    -86.43699    255.36867   -8356.8172   -8101.4485   0.74780884 
   20300    19.699921   -48.949127    250.80048   -8351.4573   -8100.6568   0.74780884 
   20400     19.24375   -73.484749    244.99294   -8358.9281   -8113.9352   0.74780884 
   20500    19.579941    -60.49191    249.27301   -8358.3436   -8109.0705   0.74780884 
   20600    19.867546    -52.16997    252.93451   -8354.8654   -8101.9309   0.74780884 
   20700    20.103584   -66.501315    255.93953   -8351.5897   -8095.6502   0.74780884 
   20800    20.041987   -67.327412    255.15534   -8353.8847   -8098.7294   0.74780884 
   20900    19.675039   -29.044791    250.48371   -8346.7838   -8096.3001   0.74780884 
   21000      20.1707   -58.997832    256.79398   -8352.1178   -8095.3239   0.74780884 
   21100    20.111434   -42.750235    256.03947   -8353.2117   -8097.1722   0.74780884 
   21200    19.741347   -78.933981    251.32787   -8346.0626   -8094.7348   0.74780884 
   21300    20.535239   -81.932802    261.43495   -8340.8455   -8079.4106   0.74780884 
   21400    20.502753   -67.064293    261.02136   -8345.4792   -8084.4579   0.74780884 
   21500    20.064554   -81.886195    255.44263    -8352.298   -8096.8554   0.74780884 
   21600    20.262132   -42.157068      257.958   -8344.6358   -8086.6778   0.74780884 
   21700     20.37154   -51.684035    259.35089   -8350.4561   -8091.1052   0.74780884 
   21800    20.064705   -60.212596    255.44455   -8349.3261   -8093.8816   0.74780884 
   21900    20.754298    -52.66382    264.22379   -8355.4659   -8091.2421   0.74780884 
   22000    20.999837    -58.75684    267.34976   -8345.9671   -8078.6173   0.74780884 
   22100    20.474072   -56.552959    260.65623   -8348.0178   -8087.3616   0.74780884 
   22200    20.381352    -44.21116     259.4758   -8342.5823   -8083.1065   0.74780884 
   22300    21.217441   -45.001699    270.12009   -8347.1567   -8077.0366   0.74780884 
   22400    21.258186   -33.881473    270.63881   -8344.5876   -8073.9488   0.74780884 
   22500     21.58668   -70.415169    274.82088   -8344.4009     -8069.58   0.74780884 
   22600    21.358059    -50.27751     271.9103   -8341.5422   -8069.6319   0.74780884 
   22700    20.833709   -69.630709    265.23477    -8347.083   -8081.8482   0.74780884 
   22800     20.99017   -65.967192    267.22669   -8344.2818   -8077.0551   0.74780884 
   22900     20.80986   -57.876887    264.93116   -8337.8431   -8072.9119   0.74780884 
   23000    21.006914   -55.401026    267.43986   -8346.8449    -8079.405   0.74780884 
   23100    21.145454   -90.663066    269.20361   -8346.1479   -8076.9443   0.74780884 
   23200     21.38915   -73.839321    272.30612   -8343.4428   -8071.1367   0.74780884 
   23300     20.98332   -70.953829    267.13948    -8339.701   -8072.5615   0.74780884 
   23400    21.659285   -70.088818    275.74522   -8341.7863   -8066.0411   0.74780884 
   23500    21.381637   -49.910054    272.21047   -8340.3577   -8068.1472   0.74780884 
   23600    21.545652   -31.363972    274.29855   -8342.0911   -8067.7925   0.74780884 
   23700    20.900121    -61.43514    266.08027   -8339.5832   -8073.5029   0.74780884 
   23800    20.957333   -80.589467    266.80865   -8335.2742   -8068.4655   0.74780884 
   23900    22.130634   -26.272069    281.74597   -8334.6205   -8052.8745   0.74780884 
   24000    21.569461   -43.483595    274.60167   -8329.8895   -8055.2878   0.74780884 
   24100    21.599023     -55.5488    274.97802   -8330.6021   -8055.6241   0.74780884 
   24200    21.330185   -53.351964    271.55544   -8337.4464    -8065.891   0.74780884 
   24300    21.042737   -68.941817    267.89592   -8334.0863   -8066.1903   0.74780884 
   24400    21.662786   -11.372967    275.78978   -8324.8905   -8049.1007   0.74780884 
   24500    22.075566   -75.327513    281.04491   -8334.3159   -8053.2709   0.74780884 
   24600    21.903566    -43.92989    278.85516    -8329.778   -8050.9228   0.74780884 
   24700    21.718851   -47.368836    276.50355   -8329.1271   -8052.6236   0.74780884 
   24800    21.736134   -96.225173    276.72358   -8329.9621   -8053.2385   0.74780884 
   24900    22.195494   -76.809821    282.57171   -8330.6953   -8048.1235   0.74780884 
   25000    22.030315   -44.618778    280.46881   -8332.3957   -8051.9269   0.74780884 
   25100    22.165324   -58.520818    282.18762   -8327.2967   -8045.1091   0.74780884 
   25200    22.157621   -64.618443    282.08956   -8330.5864   -8048.4969   0.74780884 
   25300    22.471886   -36.191083    286.09047   -8329.2749   -8043.1844   0.74780884 
   25400    22.514747   -64.503246    286.63613   -8334.7748   -8048.1386   0.74780884 
   25500    22.325731    -42.59328    284.22977   -8325.5936   -8041.3638   0.74780884 
   25600    22.464708   -25.421523    285.99909   -8325.3268   -8039.3278   0.74780884 
   25700    22.526841   -49.300509    286.79011    -8328.841   -8042.0509   0.74780884 
   25800    21.845305   -84.189022    278.11345   -8317.8962   -8039.7828   0.74780884 
   25900    22.215516   -50.381084    282.82662    -8326.434   -8043.6074   0.74780884 
   26000    22.521501   -69.257512    286.72213    -8316.041   -8029.3189   0.74780884 
   26100    22.520238    -78.66732    286.70604     -8318.61    -8031.904   0.74780884 
   26200    22.950448   -43.413877    292.18307    -8325.797    -8033.614   0.74780884 
   26300    22.028403   -34.613044    280.44447   -8323.8238   -8043.3793   0.74780884 
   26400    22.736556   -49.764967       289.46   -8313.4716   -8024.0116   0.74780884 
   26500    22.646111    -71.92373    288.30854   -8317.9908   -8029.6823   0.74780884 
   26600    22.936331   -75.054499    292.00335   -8321.9905   -8029.9872   0.74780884 
   26700    21.908015   -43.441638    278.91181   -8314.4647   -8035.5528   0.74780884 
   26800    22.836355    -57.39498    290.73054   -8314.0984   -8023.3678   0.74780884 
   26900    22.750382   -63.733098    289.63602   -8318.8734   -8029.2373   0.74780884 
   27000    23.150363   -87.007811    294.72819   -8325.1846   -8030.4564   0.74780884 
   27100     22.92643   -79.901365    291.87729   -8317.1409   -8025.2636   0.74780884 
   27200    22.890201   -39.823975    291.41605   -8313.6508   -8022.2347   0.74780884 
   27300    23.223524   -30.637163    295.65961   -8317.8405   -8022.1808   0.74780884 
   27400     23.11936   -38.072445     294.3335   -8320.6098   -8026.2763   0.74780884 
   27500    22.802038   -22.533816    290.29365   -8315.6744   -8025.3807   0.74780884 
   27600    22.867093   -28.762765    291.12187   -8317.8432   -8026.7213   0.74780884 
   27700    23.083768   -16.002028    293.88037   -8310.1034    -8016.223   0.74780884 
   27800    23.644709    -69.53499    301.02173   -8311.4284   -8010.4067   0.74780884 
   27900     23.57681   -37.309963     300.1573   -8302.7864   -8002.6291   0.74780884 
   28000    22.809187   -48.657768    290.38467   -8314.5068   -8024.1221   0.74780884 
   28100    23.006705   -55.995305    292.89927   -8307.9858   -8015.0865   0.74780884 
   28200    23.703925   -31.477943    301.77561   -8315.3145   -8013.5389   0.74780884 
   28300    24.162403   -59.998411    307.61252   -8307.1569   -7999.5444   0.74780884 
   28400    23.484198   -65.517596    298.97826   -8307.9662   -8008.9879   0.74780884 
   28500    23.796931   -62.141179    302.95968   -8307.7465   -8004.7868   0.74780884 
   28600    23.592569   -66.351506    300.35793   -8308.1382   -8007.7803   0.74780884 
   28700    23.506676   -21.192005    299.26443   -8302.6535   -8003.3891   0.74780884 
   28800    23.477424   -53.786966    298.89201   -8306.4902   -8007.5982   0.74780884 
   28900    23.516229   -34.997022    299.38604   -8301.3922   -8002.0061   0.74780884 
   29000    23.089698    -55.93845    293.95586   -8313.5602   -8019.6044   0.74780884 
   29100    23.432315   -40.686892    298.31774   -8309.7877     -8011.47   0.74780884 
   29200    23.656798   -60.476414    301.17564   -8297.8743   -7996.6986   0.74780884 
   29300    23.851724   -32.803329    303.65724   -8296.0897   -7992.4324   0.74780884 
   29400    24.301343   -72.037827    309.38136   -8301.1986   -7991.8172   0.74780884 
   29500    23.390129   -75.029616    297.78066   -8306.2593   -8008.4787   0.74780884 
   29600    23.849522   -56.612248    303.62921   -8303.9015   -8000.2723   0.74780884 
   29700    23.990696   -82.637482     305.4265   -8305.4503   -8000.0238   0.74780884 
   29800    24.050901   -46.374103    306.19297   -8305.4448   -7999.2519   0.74780884 
   29900     24.59815   -43.014521    313.16002    -8310.719    -7997.559   0.74780884 
   30000    23.803259    -57.04839    303.04024   -8294.0195   -7990.9793   0.74780884 
   30100    24.264549   -52.950129    308.91293   -8300.6333   -7991.7204   0.74780884 
   30200    24.176631   -92.021365    307.79364   -8298.7708   -7990.9772   0.74780884 
   30300    24.108872   -72.410096    306.93101   -8301.0277   -7994.0967   0.74780884 
   30400    23.778411   -70.119243    302.72389    -8298.994   -7996.2702   0.74780884 
   30500    24.724346   -48.598493    314.76663   -8297.1916    -7982.425   0.74780884 
   30600    23.995986   -63.217724    305.49385   -8295.5337   -7990.0399   0.74780884 
   30700    25.499889   -49.334112     324.6401   -8313.1747   -7988.5346   0.74780884 
   30800    24.444737   -49.567473    311.20692   -8294.4408   -7983.2339   0.74780884 
   30900     24.79905    -40.47389    315.71768    -8301.297   -7985.5794   0.74780884 
   31000      25.2155   -28.229263    321.01953   -8309.4977   -7988.4782   0.74780884 
   31100    23.949511   -75.944935    304.90217   -8290.9953   -7986.0931   0.74780884 
   31200    24.138121   -25.518816    307.30337   -8285.8701   -7978.5667   0.74780884 
   31300    24.445207   -26.985196     311.2129   -8287.5317   -7976.3188   0.74780884 
   31400    24.937628   -49.275441    317.48194   -8285.2914   -7967.8095   0.74780884 
   31500    24.116029   -52.239985    307.02212   -8291.9143   -7984.8921   0.74780884 
   31600    25.090707    -72.84153    319.43079   -8292.5816   -7973.1508   0.74780884 
   31700    25.027552    -58.69859    318.62675   -8297.0095   -7978.3828   0.74780884 
   31800    24.834889   -51.449735    316.17396   -8289.2489   -7973.0749   0.74780884 
   31900    25.206739   -33.235148      320.908   -8292.9142   -7972.0062   0.74780884 
   32000    24.978005    -30.67322    317.99597   -8285.1803   -7967.1843   0.74780884 
   32100    24.911476   -45.480621    317.14899   -8297.3767   -7980.2277   0.74780884 
   32200    25.440756   -42.824324    323.88727    -8288.637   -7964.7497   0.74780884 
   32300    24.627799   -29.337258    313.53749   -8288.7951   -7975.2576   0.74780884 
   32400    25.020076   -36.545948    318.53158   -8279.9402   -7961.4086   0.74780884 
   32500     24.81539   -20.918163    315.92572   -8284.6054   -7968.6797   0.74780884 
   32600    25.015133   -32.146729    318.46865   -8284.6071   -7966.1384   0.74780884 
   32700    24.712197   -43.378497    314.61197   -8291.1006   -7976.4887   0.74780884 
   32800    25.210517   -31.279531     320.9561   -8286.4954   -7965.5393   0.74780884 
   32900    25.784603   -46.862323    328.26481   -8293.3763   -7965.1115   0.74780884 
   33000    25.206402    -24.43656     320.9037   -8284.2051   -7963.3014   0.74780884 
   33100    25.196008   -53.738484    320.77138   -8283.5275   -7962.7561   0.74780884 
   33200    24.688916   -40.872238    314.31557    -8275.555   -7961.2395   0.74780884 
   33300    26.073214   -21.988874    331.93913   -8276.1727   -7944.2335   0.74780884 
   33400    26.056457   -46.501441    331.72579   -8279.9352   -7948.2094   0.74780884 
   33500    26.198587   -34.649923    333.53525    -8287.023   -7953.4878   0.74780884 
   33600    26.512209   -68.124129    337.52798   -8280.4989   -7942.9709   0.74780884 
   33700    25.107461   -65.504801    319.64408   -8272.6359   -7952.9918   0.74780884 
   33800     25.95379   -38.744922    330.41874   -8285.8803   -7955.4615   0.74780884 
   33900    25.599569   -35.579955    325.90913   -8276.9775   -7951.0683   0.74780884 
   34000    26.299461   -66.165109    334.81948   -8286.1822   -7951.3627   0.74780884 
   34100    26.829816   -20.119713    341.57145   -8288.7504   -7947.1789   0.74780884 
   34200    25.838743    -52.37651    328.95407   -8277.9552   -7949.0012   0.74780884 
   34300    26.372579   -37.101707    335.75034   -8278.8137   -7943.0633   0.74780884 
   34400     25.91863    -42.33155    329.97111   -8281.5669   -7951.5958   0.74780884 
   34500     25.72105   -25.252913    327.45571   -8270.1367    -7942.681   0.74780884 
   34600    25.799757   -29.916033    328.45772   -8282.7783   -7954.3206   0.74780884 
   34700    25.807284   -48.767721    328.55356   -8271.6398   -7943.0863   0.74780884 
   34800      25.2692   -53.887076    321.70319   -8260.9138   -7939.2106   0.74780884 
   34900     26.31822   -57.603465     335.0583   -8274.9248   -7939.8665   0.74780884 
   35000    26.176299   -39.174352     333.2515   -8265.7318   -7932.4803   0.74780884 
   35100    26.597209   -41.576244    338.61012   -8278.1466   -7939.5365   0.74780884 
   35200    26.310412   -53.106329     334.9589   -8281.3534   -7946.3945   0.74780884 
   35300     26.88857   -29.474877    342.31945   -8268.0161   -7925.6966   0.74780884 
   35400    25.974077    6.3553487      330.677   -8264.9164   -7934.2394   0.74780884 
   35500     26.04572   -3.4089572    331.58909   -8271.1301    -7939.541   0.74780884 
   35600    26.861511   -45.596835    341.97497   -8271.3197   -7929.3448   0.74780884 
   35700    26.204019    -58.85925    333.60441   -8260.1792   -7926.5748   0.74780884 
   35800    26.854261   -36.871869    341.88266   -8260.8595   -7918.9769   0.74780884 
   35900    26.210334   -44.755385     333.6848   -8271.1434   -7937.4586   0.74780884 
   36000    26.486229   -24.439354    337.19723   -8265.1196   -7927.9224   0.74780884 
   36100    26.222955    -45.12126    333.84548   -8265.9665   -7932.1211   0.74780884 
   36200     26.86145   -20.690934    341.97419   -8264.6997   -7922.7255   0.74780884 
   36300    26.626162   -44.624324    338.97873   -8260.2814   -7921.3027   0.74780884 
   36400    26.946866   -48.983042    343.06163   -8262.6442   -7919.5826   0.74780884 
   36500     27.24108   -51.444149    346.80727   -8255.2703    -7908.463   0.74780884 
   36600    26.982843   -53.517046    343.51965   -8251.7343   -7908.2147   0.74780884 
   36700    26.765847   -57.874086    340.75706   -8248.5808   -7907.8237   0.74780884 
   36800    26.643288   -49.118823    339.19676   -8244.9455   -7905.7487   0.74780884 
   36900    27.026473     -18.4387     344.0751   -8258.2544   -7914.1793   0.74780884 
   37000    27.272049   -26.580273    347.20153   -8254.5345    -7907.333   0.74780884 
   37100    26.189531   -19.027104    333.41996   -8266.4256   -7933.0056   0.74780884 
   37200    27.344442   -46.072053    348.12318   -8263.2129   -7915.0897   0.74780884 
   37300     26.70062   -60.478132    339.92665   -8258.9263   -7918.9997   0.74780884 
   37400    27.323603    -9.494477    347.85788     -8255.54   -7907.6822   0.74780884 
   37500    27.335308   -29.541348    348.00689   -8262.3334   -7914.3265   0.74780884 
   37600    26.920086   -70.436804    342.72068   -8259.3765   -7916.6558   0.74780884 
   37700    26.853197    -65.69943    341.86911   -8255.3126   -7913.4435   0.74780884 
   37800    26.884708   -14.210869    342.27028   -8257.2761   -7915.0058   0.74780884 
   37900    27.234053   -42.990331    346.71781   -8259.1827   -7912.4649   0.74780884 
   38000    26.993294   -45.892053     343.6527   -8266.2036   -7922.5509   0.74780884 
   38100    28.679812   -30.837847    365.12383   -8255.6364   -7890.5126   0.74780884 
   38200    27.584969   -7.2487117    351.18534   -8241.9715   -7890.7861   0.74780884 
   38300    26.920407   -38.273812    342.72477   -8255.2731   -7912.5483   0.74780884 
   38400    27.579841   -26.334984    351.12005   -8248.6613   -7897.5412   0.74780884 
   38500    27.597907   -50.537174    351.35005   -8262.9113   -7911.5612   0.74780884 
   38600    28.481787   -2.0736536    362.60276   -8254.9878    -7892.385   0.74780884 
   38700    27.363604   -60.815712    348.36713   -8253.7053   -7905.3382   0.74780884 
   38800    27.376896   -28.714511    348.53636   -8246.2031   -7897.6668   0.74780884 
   38900    27.758341     -37.3458    353.39255   -8251.8952   -7898.5026   0.74780884 
   39000     28.12617   -57.871286    358.07538   -8251.1056   -7893.0302   0.74780884 
   39100    28.519612   -63.449802    363.08431   -8252.5016   -7889.4173   0.74780884 
   39200    28.069973    -5.632467    357.35994    -8254.198   -7896.8381   0.74780884 
   39300    27.216637   -17.638931    346.49608   -8244.4757   -7897.9796   0.74780884 
   39400    28.118563   -50.174945    357.97854    -8244.269   -7886.2904   0.74780884 
   39500    27.723616    -66.90135    352.95046   -8244.4912   -7891.5408   0.74780884 
   39600    28.808115   -61.099652    366.75725   -8250.8312   -7884.0739   0.74780884 
   39700    28.548352   -34.255506    363.45021   -8246.5932    -7883.143   0.74780884 
   39800    28.867681   -51.281395     367.5156   -8252.7298   -7885.2142   0.74780884 
   39900    28.285346   -45.188961    360.10187   -8249.0706   -7888.9687   0.74780884 
   40000     27.48351   -5.5285309    349.89366   -8248.0014   -7898.1077   0.74780884 
   40100    28.214086   -30.006339    359.19466   -8249.5466    -7890.352   0.74780884 
   40200    28.410483   -12.734775    361.69499   -8256.8247   -7895.1297   0.74780884 
   40300    28.244766   -44.116515    359.58524    -8245.831   -7886.2458   0.74780884 
   40400    28.530839   -7.2355405    363.22725   -8248.6806   -7885.4533   0.74780884 
   40500    27.921735   -15.669228    355.47271   -8238.3821   -7882.9094   0.74780884 
   40600    28.458689   -23.933455     362.3087   -8246.0144   -7883.7057   0.74780884 
   40700    28.185131   -43.833254    358.82602   -8243.5118   -7884.6858   0.74780884 
   40800    28.678862   -79.557258    365.11174   -8247.8388   -7882.7271   0.74780884 
   40900    27.839194   -55.920033    354.42188   -8237.8471   -7883.4253   0.74780884 
   41000    28.527555   -25.299382    363.18543   -8246.0795   -7882.8941   0.74780884 
   41100    28.220073   -47.982407    359.27087   -8233.2668   -7873.9959   0.74780884 
   41200    28.131494   -45.635526    358.14317   -8236.0278   -7877.8846   0.74780884 
   41300    28.561247    -60.62557    363.61437   -8231.2087   -7867.5943   0.74780884 
   41400    28.771593    -38.18974    366.29229   -8237.8276   -7871.5353   0.74780884 
   41500    28.624493   0.80567013    364.41956   -8233.8568   -7869.4372   0.74780884 
   41600    28.649656   -55.747493    364.73991   -8235.1793   -7870.4394   0.74780884 
   41700    28.731568   -49.497584    365.78273    -8232.183   -7866.4003   0.74780884 
   41800     28.14809   -33.347773    358.35446   -8237.8767   -7879.5222   0.74780884 
   41900    28.724198   -30.816319     365.6889   -8239.7849    -7874.096   0.74780884 
   42000      28.9765   -30.724607    368.90097   -8223.3746   -7854.4736   0.74780884 
   42100    28.792061   -39.321551    366.55287   -8230.5683   -7864.0154   0.74780884 
   42200    28.515964   -54.600339    363.03788     -8230.64   -7867.6021   0.74780884 
   42300    28.710754   -69.373515    365.51775   -8232.3781   -7866.8604   0.74780884 
   42400     28.51757   -26.848461    363.05832   -8228.0321   -7864.9738   0.74780884 
   42500    29.111259     -68.1573     370.6166   -8236.8415   -7866.2249   0.74780884 
   42600    29.345786   -25.449708    373.60237   -8230.1498   -7856.5474   0.74780884 
   42700    28.593177   -45.800451    364.02088   -8227.2816   -7863.2607   0.74780884 
   42800    28.162657   -50.121516    358.53991   -8231.2802   -7872.7403   0.74780884 
   42900    28.448923   -16.515856    362.18436   -8219.1007   -7856.9163   0.74780884 
   43000    30.043737   -8.4523048      382.488   -8221.7262   -7839.2382   0.74780884 
   43100    28.425745   -51.789512    361.88929   -8224.4081   -7862.5188   0.74780884 
   43200    29.483586   -43.232176    375.35671   -8215.2441   -7839.8874   0.74780884 
   43300    28.524046   -32.372891    363.14077   -8223.5333   -7860.3925   0.74780884 
   43400    28.814012   -47.115502    366.83233   -8227.1781   -7860.3457   0.74780884 
   43500    29.763615   -41.790927    378.92177   -8228.1485   -7849.2267   0.74780884 
   43600    29.174834   -28.589035    371.42597   -8216.7982   -7845.3722   0.74780884 
   43700    29.668172   -62.127876    377.70668   -8224.5949   -7846.8883   0.74780884 
   43800    29.678224   -63.112726    377.83465   -8225.2638   -7847.4291   0.74780884 
   43900    29.281442   -45.568043     372.7832    -8227.139   -7854.3558   0.74780884 
   44000    29.130941    2.0123402    370.86717   -8226.1295   -7855.2623   0.74780884 
   44100    29.050913   -40.863752    369.84833   -8233.1991   -7863.3508   0.74780884 
   44200    29.001401   -28.340289    369.21798   -8227.6941   -7858.4761   0.74780884 
   44300    29.220281   -20.238104    372.00456   -8221.6233   -7849.6188   0.74780884 
   44400    30.073135   -29.159089    382.86227   -8226.7831   -7843.9208   0.74780884 
   44500    30.639118    3.5127065    390.06783   -8222.7144   -7832.6466   0.74780884 
   44600    30.295323   -37.086359    385.69096   -8222.6194   -7836.9285   0.74780884 
   44700    29.319385   -10.663935    373.26626   -8206.7519   -7833.4856   0.74780884 
   44800    30.349047   -16.543344    386.37493   -8229.5088   -7843.1339   0.74780884 
   44900    29.853625   -43.197256    380.06769   -8227.0221   -7846.9544   0.74780884 
   45000    28.939441   -20.899406    368.42918   -8224.5489   -7856.1197   0.74780884 
   45100    30.159618   -28.340261    383.96329   -8226.4216   -7842.4583   0.74780884 
   45200    29.933845   -12.856608    381.08897   -8239.4865   -7858.3975   0.74780884 
   45300     29.83094   -19.533398    379.77888   -8228.5903   -7848.8114   0.74780884 
   45400    29.877084   -29.013683    380.36634   -8221.5324   -7841.1661   0.74780884 
   45500    30.136236   -57.346481    383.66562   -8228.7053   -7845.0397   0.74780884 
   45600    30.466074   -76.156375     387.8648    -8211.061   -7823.1962   0.74780884 
   45700    29.055219   -15.077095    369.90314   -8211.1988   -7841.2957   0.74780884 
   45800     30.53495   -34.997393    388.74166   -8215.2998   -7826.5581   0.74780884 
   45900    30.488391   -1.9621938    388.14892   -8215.4553   -7827.3064   0.74780884 
   46000    30.652333    3.0197354    390.23607   -8218.1141   -7827.8781   0.74780884 
   46100    30.490514    13.680297    388.17594   -8216.7976   -7828.6217   0.74780884 
   46200    29.921117   -25.125394    380.92693   -8226.7996   -7845.8727   0.74780884 
   46300    29.850705    13.575336    380.03052   -8214.1695    -7834.139   0.74780884 
   46400    30.757378   -31.797453     391.5734   -8225.5515   -7833.9781   0.74780884 
   46500    30.112391   -25.532974    383.36205   -8215.8841    -7832.522   0.74780884 
   46600    30.491901   -27.905529    388.19361   -8211.8192   -7823.6256   0.74780884 
   46700    29.906612   -51.617883    380.74227   -8201.4404   -7820.6982   0.74780884 
   46800    31.473251   -40.946947    400.68721   -8211.5368   -7810.8496   0.74780884 
   46900    30.982311    3.1430847    394.43703   -8200.0937   -7805.6567   0.74780884 
   47000    30.039057   -15.581585    382.42843   -8213.0592   -7830.6308   0.74780884 
   47100     30.88529   -51.788279    393.20186   -8223.1408   -7829.9389   0.74780884 
   47200    30.179846    -40.07519    384.22082   -8223.3671   -7839.1463   0.74780884 
   47300    30.916837   -30.175321    393.60348    -8212.579   -7818.9755   0.74780884 
   47400    29.922644   -22.094951    380.94637   -8216.3041   -7835.3577   0.74780884 
   47500    30.118812   -27.022731    383.44379   -8208.0642   -7824.6204   0.74780884 
   47600    30.721287   -22.274912    391.11392   -8217.5769    -7826.463   0.74780884 
   47700    29.307077   -24.556673    373.10957   -8214.4995     -7841.39   0.74780884 
   47800    30.774737   -30.299181    391.79439   -8215.7448   -7823.9504   0.74780884 
   47900    31.265151   -25.246724    398.03788   -8200.5703   -7802.5324   0.74780884 
   48000    30.420018   -6.2717284    387.27846   -8211.3495   -7824.0711   0.74780884 
   48100    31.355269   -25.112607    399.18517   -8207.8022   -7808.6171   0.74780884 
   48200    30.902272   -2.0648861    393.41805   -8196.3426   -7802.9245   0.74780884 
   48300    30.902673   -37.493695    393.42316   -8191.5463   -7798.1232   0.74780884 
   48400    31.109547    -36.13356    396.05687   -8200.8934   -7804.8365   0.74780884 
   48500    31.645878   -21.456933    402.88493   -8202.0892   -7799.2042   0.74780884 
   48600    30.605861   -41.565573    389.64444   -8189.3109   -7799.6665   0.74780884 
   48700    31.419082   -31.747863    399.99758   -8200.3094   -7800.3118   0.74780884 
   48800    30.319646   -28.615616    386.00062   -8213.3106     -7827.31   0.74780884 
   48900    30.724056   -38.109844    391.14917   -8219.1677   -7828.0185   0.74780884 
   49000    30.661024   -14.978165    390.34671    -8211.895   -7821.5483   0.74780884 
   49100    31.074005   -11.857149    395.60439    -8198.674   -7803.0696   0.74780884 
   49200    30.874031   -12.340531    393.05851   -8201.4618   -7808.4033   0.74780884 
   49300    31.125789     8.755571    396.26365   -8202.3973   -7806.1336   0.74780884 
   49400    31.714431   -3.9971812    403.75768   -8218.5805   -7814.8228   0.74780884 
   49500    31.414831   -6.2713635    399.94346   -8205.5748   -7805.6313   0.74780884 
   49600    31.450632   -51.628366    400.39924   -8204.6849   -7804.2857   0.74780884 
   49700    32.002684   -41.819065    407.42745    -8199.843   -7792.4156   0.74780884 
   49800    30.385133   -35.049956    386.83433   -8193.8534   -7807.0191   0.74780884 
   49900    32.011696   -44.304342    407.54218   -8207.1086   -7799.5665   0.74780884 
   50000    31.363765   -33.549066    399.29333   -8204.8032   -7805.5099   0.74780884 
   50100     31.68955   -19.575202    403.44092   -8200.6961   -7797.2551   0.74780884 
   50200    31.479151   -21.995584    400.76233   -8195.7677   -7795.0053   0.74780884 
   50300    32.351418   -44.612699    411.86719    -8197.198   -7785.3308   0.74780884 
   50400    31.768651   -30.471541    404.44796   -8176.7275   -7772.2796   0.74780884 
   50500    32.031511    -17.67154    407.79444   -8185.8387   -7778.0443   0.74780884 
   50600    31.822116   -52.504106    405.12863   -8193.9232   -7788.7946   0.74780884 
   50700    31.587021   -66.008744    402.13562   -8194.1153   -7791.9797   0.74780884 
   50800    32.091134   -25.691931     408.5535   -8188.7578   -7780.2044   0.74780884 
   50900    32.887275   -81.597874     418.6892   -8186.3335   -7767.6443   0.74780884 
   51000     32.56588   -43.718273    414.59751   -8180.5464   -7765.9489   0.74780884 
   51100    31.334696   -34.281465    398.92326   -8184.7365   -7785.8132   0.74780884 
   51200    31.632694    2.3117262    402.71709   -8178.4378   -7775.7207   0.74780884 
   51300    32.088174    21.102703    408.51582   -8183.5196   -7775.0038   0.74780884 
   51400    30.806615   -16.016163    392.20024   -8183.2866   -7791.0864   0.74780884 
   51500    31.868552   -16.852291     405.7198   -8188.2215   -7782.5017   0.74780884 
   51600    31.873027   -61.562247    405.77677   -8182.2617   -7776.4849   0.74780884 
   51700    31.518791   -4.9290389    401.26698   -8186.0318   -7784.7649   0.74780884 
   51800    33.347486   -19.039943    424.54817   -8187.1806   -7762.6325   0.74780884 
   51900    33.169751   -2.8108528    422.28541   -8190.5071   -7768.2217   0.74780884 
   52000    32.237277   -48.423175    410.41405   -8195.3325   -7784.9185   0.74780884 
   52100    32.312273   -15.098325    411.36883   -8195.4762   -7784.1074   0.74780884 
   52200     32.80721   -36.558765     417.6699   -8171.5488   -7753.8789   0.74780884 
   52300    32.530561    15.731795    414.14787   -8181.0398    -7766.892   0.74780884 
   52400    33.164863   -18.132617    422.22318    -8197.478   -7775.2548   0.74780884 
   52500    32.184725   -10.019165    409.74501   -8179.8315   -7770.0865   0.74780884 
   52600    33.063679   -20.074529    420.93501   -8197.8622   -7776.9272   0.74780884 
   52700    31.839873   -62.045233    405.35469   -8182.6942   -7777.3395   0.74780884 
   52800    31.959165       -43.76    406.87339   -8173.4255   -7766.5521   0.74780884 
   52900    31.969837   -14.630288    407.00926   -8183.3666   -7776.3573   0.74780884 
   53000    32.730671   -29.046091    416.69547    -8181.482   -7764.7865   0.74780884 
   53100    32.574044   -42.226764    414.70144   -8184.4573   -7769.7559   0.74780884 
   53200    33.292702   -27.005363    423.85072   -8197.7176   -7773.8669   0.74780884 
   53300    32.388904   -26.140944    412.34443   -8188.8148   -7776.4704   0.74780884 
   53400     32.20904   -8.7934788    410.05457   -8178.4764   -7768.4218   0.74780884 
   53500    32.838185   -3.1112404    418.06424   -8182.7507   -7764.6865   0.74780884 
   53600    33.393151   -34.645586    425.12954   -8180.0989   -7754.9694   0.74780884 
   53700    33.268288   -5.8212936     423.5399   -8176.1251   -7752.5852   0.74780884 
   53800    32.707019   -2.6067763    416.39435   -8185.0566   -7768.6623   0.74780884 
   53900    32.496068   -22.766322    413.70873   -8175.8423   -7762.1335   0.74780884 
   54000    33.511375   -3.8348966    426.63465    -8183.373   -7756.7383   0.74780884 
   54100    33.890257   -11.433773    431.45821   -8179.6463   -7748.1881   0.74780884 
   54200    32.718742    12.407034     416.5436   -8175.5684   -7759.0248   0.74780884 
   54300    33.607829   -27.399726    427.86261   -8175.0366    -7747.174   0.74780884 
   54400    33.088376   -50.610513    421.24943   -8170.4101   -7749.1607   0.74780884 
   54500    33.608295   -12.826295    427.86854   -8163.8098   -7735.9412   0.74780884 
   54600    32.668693    -27.01867    415.90643   -8167.2377   -7751.3312   0.74780884 
   54700    33.038879     13.05252    420.61928   -8164.2957   -7743.6765   0.74780884 
   54800    32.753295   -14.290668    416.98351   -8171.9806   -7754.9971   0.74780884 
   54900    33.418484   -31.640143    425.45205   -8176.8013   -7751.3492   0.74780884 
   55000    32.385457    11.908286    412.30054    -8178.592   -7766.2915   0.74780884 
   55100    34.246137   -5.6959062    435.98893   -8175.0758   -7739.0869   0.74780884 
   55200    34.034294    20.342722    433.29195   -8174.2237   -7740.9317   0.74780884 
   55300    33.994318   -12.108227    432.78301   -8171.0589   -7738.2759   0.74780884 
   55400    32.826561   -49.018409    417.91625   -8158.7321   -7740.8158   0.74780884 
   55500    33.709271   -56.398946    429.15407   -8163.4225   -7734.2684   0.74780884 
   55600    33.311405    -40.32315    424.08881   -8181.0896   -7757.0008   0.74780884 
   55700    33.862859   -39.872139     431.1094   -8159.6648   -7728.5554   0.74780884 
   55800     34.34995   -58.352139    437.31058   -8161.5004   -7724.1898   0.74780884 
   55900    33.908585    -20.51492    431.69154   -8166.8389   -7735.1474   0.74780884 
   56000    33.726193    2.2053195     429.3695   -8158.9371   -7729.5676   0.74780884 
   56100    33.890144   -30.796895    431.45676    -8167.446   -7735.9892   0.74780884 
   56200    34.346269   -60.215147    437.26371   -8173.2647    -7736.001   0.74780884 
   56300    34.110417   -19.878344    434.26107   -8176.5649   -7742.3038   0.74780884 
   56400    34.043659   -7.8179571    433.41118   -8174.9803   -7741.5691   0.74780884 
   56500    33.679559   -28.527141     428.7758   -8179.6218    -7750.846   0.74780884 
   56600    33.603546   -18.630574    427.80808   -8183.6973   -7755.8892   0.74780884 
   56700    33.561276   -27.829061    427.26994   -8169.8885   -7742.6186   0.74780884 
   56800    33.881645   -43.657771    431.34857    -8175.753   -7744.4044   0.74780884 
   56900     34.05862   -41.884927    433.60164   -8173.0524   -7739.4507   0.74780884 
   57000    34.652579    4.1844651    441.16336   -8163.1945   -7722.0311   0.74780884 
   57100    34.075607   -65.081713    433.81791   -8169.8987   -7736.0808   0.74780884 
   57200    32.987551   -37.914566    419.96582    -8159.464   -7739.4982   0.74780884 
   57300    34.433412   -54.237096    438.37313   -8167.8108   -7729.4377   0.74780884 
   57400    33.973392   -5.3524868     432.5166   -8165.5924   -7733.0758   0.74780884 
   57500    33.572305   -12.364756    427.41034   -8160.6312   -7733.2209   0.74780884 
   57600    34.428678   -34.197132    438.31286   -8154.1688    -7715.856   0.74780884 
   57700    34.553592    -54.71359    439.90315   -8164.1185   -7724.2153   0.74780884 
   57800    34.432703   -32.904623    438.36411   -8176.1428   -7737.7787   0.74780884 
   57900    34.925189   -36.766473    444.63397   -8163.6629    -7719.029   0.74780884 
   58000    35.154011   -11.398067    447.54711   -8162.8648   -7715.3176   0.74780884 
   58100    33.498641   -8.0725079    426.47254   -8157.9468   -7731.4743   0.74780884 
   58200    34.750515   -19.048784    442.41019     -8159.83   -7717.4199   0.74780884 
   58300    35.136404   -38.910433    447.32296   -8164.5376   -7717.2147   0.74780884 
   58400    34.454071   -7.8199041    438.63614   -8149.6056   -7710.9695   0.74780884 
   58500    34.044059    15.875951    433.41626   -8166.3071   -7732.8908   0.74780884 
   58600    33.954949   -13.633761    432.28181    -8157.397   -7725.1152   0.74780884 
   58700    34.720783   -17.301866    442.03167   -8170.0876    -7728.056   0.74780884 
   58800    33.424225   -10.389962    425.52513   -8176.3476   -7750.8225   0.74780884 
   58900    33.743199   -41.953715      429.586   -8161.3901   -7731.8041   0.74780884 
   59000    33.849208   -41.072713    430.93561   -8153.4813   -7722.5457   0.74780884 
   59100    34.979562   -43.223696     445.3262   -8148.4121   -7703.0859   0.74780884 
   59200     34.34019   -9.5552263    437.18632   -8152.3295   -7715.1432   0.74780884 
   59300    35.197546    -16.42771    448.10136   -8158.5517   -7710.4503   0.74780884 
   59400    34.337266    4.8170589    437.14909   -8150.4456   -7713.2965   0.74780884 
   59500    34.643483   -24.878879    441.04756   -8147.6411   -7706.5936   0.74780884 
   59600    34.997274   -18.551005    445.55169   -8157.9904   -7712.4387   0.74780884 
   59700     34.92959    24.308186    444.68999   -8154.2137   -7709.5237   0.74780884 
   59800    35.256069   -19.403914    448.84642   -8136.2103   -7687.3639   0.74780884 
   59900    34.865057   -15.659108    443.86843   -8144.9552   -7701.0868   0.74780884 
   60000    35.331255   -3.1107097     449.8036   -8141.0406    -7691.237   0.74780884 
   60100    34.889658   -5.4447364    444.18162   -8158.0276    -7713.846   0.74780884 
   60200    34.498431   -30.404048     439.2009   -8166.6607   -7727.4598   0.74780884 
   60300    34.558445    -26.61489    439.96494   -8148.2434   -7708.2784   0.74780884 
   60400    34.545603   -26.150245    439.80145   -8150.8781   -7711.0766   0.74780884 
   60500     34.89222    22.454567    444.21423   -8148.9927   -7704.7785   0.74780884 
   60600    36.618146   -2.7731828    466.18707    -8147.336   -7681.1489   0.74780884 
   60700    35.432889   -8.9646535    451.09752   -8150.3931   -7699.2956   0.74780884 
   60800    34.281209   -43.106401    436.43543   -8151.8469   -7715.4115   0.74780884 
   60900    35.318473    -21.71027    449.64088   -8147.0293   -7697.3885   0.74780884 
   61000    34.752629   -18.541531     442.4371   -8147.6809   -7705.2438   0.74780884 
   61100    34.465699   -5.0267477    438.78418   -8137.1819   -7698.3977   0.74780884 
   61200    35.310012   -7.6028182    449.53317   -8136.6112    -7687.078   0.74780884 
   61300    34.241226   -50.396817    435.92641   -8142.7042   -7706.7778   0.74780884 
   61400    34.146918   -1.7121961    434.72577   -8139.0431   -7704.3174   0.74780884 
   61500    35.672928   -15.333312    454.15346   -8140.1049   -7685.9515   0.74780884 
   61600    35.223335   -19.469477    448.42968   -8147.7384   -7699.3088   0.74780884 
   61700    35.367087    10.895682    450.25978   -8152.2115   -7701.9517   0.74780884 
   61800    34.753294   -19.643888    442.44556   -8146.4678   -7704.0222   0.74780884 
   61900     35.37198   -49.853721    450.32208   -8141.2909   -7690.9688   0.74780884 
   62000    35.261203   -61.753391    448.91178    -8144.777   -7695.8652   0.74780884 
   62100    34.490644   -12.803831    439.10176   -8134.5396   -7695.4378   0.74780884 
   62200    35.073208   -81.899459    446.51841   -8157.5518   -7711.0334   0.74780884 
   62300    35.519725   -35.077908    452.20303   -8139.7989   -7687.5959   0.74780884 
   62400    35.825015    3.3444281    456.08969   -8134.8241   -7678.7344   0.74780884 
   62500    35.981826  -0.57575956    458.08606   -8139.6975   -7681.6114   0.74780884 
   62600    35.712852    1.1438536    454.66174   -8146.6783   -7692.0166   0.74780884 
   62700    35.066904   -32.677257    446.43815    -8138.655   -7692.2168   0.74780884 
   62800    34.719092   -31.814614    442.01014   -8144.0441    -7702.034   0.74780884 
   62900    34.339553   -10.027042    437.17821   -8133.0547   -7695.8765   0.74780884 
   63000    36.124319    -51.78308    459.90014   -8127.5596   -7667.6595   0.74780884 
   63100    36.960552   -19.421474    470.54626   -8130.3539   -7659.8077   0.74780884 
   63200    35.046986   -43.555674    446.18457   -8132.0461   -7685.8616   0.74780884 
   63300    36.293608   -10.457886    462.05537   -8128.6194    -7666.564   0.74780884 
   63400    35.962452    -46.17822     457.8394   -8141.8844    -7684.045   0.74780884 
   63500    35.542805   -10.116799    452.49686   -8141.1331   -7688.6362   0.74780884 
   63600    36.628168   -38.304274    466.31466   -8144.1845   -7677.8698   0.74780884 
   63700    36.704759    -31.47827    467.28974   -8153.1715   -7685.8818   0.74780884 
   63800    35.729952   -38.784024    454.87944   -8153.0252   -7698.1458   0.74780884 
   63900    36.435396    -64.99504    463.86047   -8145.2308   -7681.3703   0.74780884 
   64000    36.383009   -47.206927    463.19353   -8143.9122   -7680.7187   0.74780884 
   64100    35.335606   -45.760404      449.859   -8136.4498   -7686.5908   0.74780884 
   64200    35.834582    -50.20295    456.21149   -8142.6151   -7686.4036   0.74780884 
   64300    36.461328    -23.88431    464.19062   -8133.2007   -7669.0101   0.74780884 
   64400     35.76348   -20.061021    455.30628   -8152.9099   -7697.6036   0.74780884 
   64500    36.784928    15.916874    468.31037   -8133.2987   -7664.9883   0.74780884 
   64600     35.36548    24.012677    450.23932   -8134.4604    -7684.221   0.74780884 
   64700    35.597997    2.2350161    453.19952   -8124.8642   -7671.6647   0.74780884 
   64800    37.279037   -17.041139     474.6009   -8132.9285   -7658.3276   0.74780884 
   64900     35.88364   -19.424461    456.83604   -8134.0174   -7677.1814   0.74780884 
   65000    36.733052    13.562595    467.64995   -8124.0872   -7656.4373   0.74780884 
   65100    37.169936   -27.953464    473.21193   -8121.1639   -7647.9519   0.74780884 
   65200    36.802517   -34.661744    468.53431   -8135.6066   -7667.0723   0.74780884 
   65300    36.398851   -40.658978    463.39522   -8136.0029   -7672.6077   0.74780884 
   65400     36.46771   -38.936455    464.27186   -8120.6953   -7656.4235   0.74780884 
   65500    35.738697   -44.288056    454.99077   -8126.5218   -7671.5311   0.74780884 
   65600    37.082433   -13.185658    472.09793   -8121.7058   -7649.6078   0.74780884 
   65700    36.253323   -56.436896    461.54249   -8119.3789   -7657.8365   0.74780884 
   65800    37.600598    5.1839735    478.69471   -8114.9377    -7636.243   0.74780884 
   65900    36.678229   -42.341622      466.952   -8120.6903   -7653.7383   0.74780884 
   66000    36.904056   -1.7207034      469.827   -8120.4661   -7650.6391   0.74780884 
   66100    35.415876   -26.988205    450.88093   -8125.3697   -7674.4888   0.74780884 
   66200    35.864909    18.519615    456.59758   -8119.1609   -7662.5633   0.74780884 
   66300    37.064136   -1.0376628    471.86498   -8130.6361   -7658.7711   0.74780884 
   66400    37.078663   -7.8107589    472.04994    -8121.618    -7649.568   0.74780884 
   66500    36.890112   -10.556649    469.64948   -8112.6383   -7642.9888   0.74780884 
   66600     36.33654   -13.298746    462.60194   -8114.7824   -7652.1804   0.74780884 
   66700    37.235328    -22.78317    474.04444   -8137.0339   -7662.9894   0.74780884 
   66800    36.093204   -23.018654    459.50402   -8122.3679   -7662.8639   0.74780884 
   66900    37.443378   -35.165419    476.69313    -8128.682   -7651.9889   0.74780884 
   67000    37.449526   -21.121581     476.7714   -8109.6286   -7632.8572   0.74780884 
   67100    36.444918   -40.455749     463.9817   -8107.1157    -7643.134   0.74780884 
   67200    38.132422   -41.334664    485.46539   -8134.2935   -7648.8281   0.74780884 
   67300    38.089558   -20.256178    484.91967   -8119.5626   -7634.6429   0.74780884 
   67400     37.16313    16.324553    473.12528   -8130.3581   -7657.2328   0.74780884 
   67500    37.595655   -10.669265    478.63178   -8117.9297    -7639.298   0.74780884 
   67600    37.381696 -0.077124619    475.90786   -8109.1648   -7633.2569   0.74780884 
   67700    36.710978   -5.6712484    467.36892   -8099.0991   -7631.7302   0.74780884 
   67800    37.961981   -9.0389674    483.29549   -8123.3934   -7640.0979   0.74780884 
   67900    37.277299   -33.333263    474.57877   -8107.7473   -7633.1685   0.74780884 
   68000    37.203381   -40.721571    473.63772   -8113.5185   -7639.8808   0.74780884 
   68100    37.413873   -17.569036     476.3175   -8111.1806   -7634.8631   0.74780884 
   68200    38.150126   -41.515205    485.69077    -8109.101   -7623.4102   0.74780884 
   68300    38.339577    6.7757863    488.10267   -8123.1016   -7634.9989   0.74780884 
   68400     37.00062    -6.045775    471.05636   -8120.9504    -7649.894   0.74780884 
   68500    38.101028   -46.034941     485.0657      -8126.6   -7641.5343   0.74780884 
   68600    36.821228   -43.979081    468.77252   -8114.2216   -7645.4491   0.74780884 
   68700    38.118466   -39.999024    485.28771   -8130.7913   -7645.5036   0.74780884 
   68800    36.773289     17.21444    468.16221   -8097.5652    -7629.403   0.74780884 
   68900    38.124553   -6.6456544     485.3652   -8105.5869   -7620.2217   0.74780884 
   69000    37.365944   -9.5922655    475.70731   -8108.4279   -7632.7206   0.74780884 
   69100    37.610339   -34.540835    478.81872   -8105.8998   -7627.0811   0.74780884 
   69200    37.456259    8.3449488    476.85712   -8105.0316   -7628.1744   0.74780884 
   69300    37.731282   -10.503005    480.35844   -8116.5046   -7636.1461   0.74780884 
   69400    37.731514    4.1574196     480.3614   -8116.2538   -7635.8924   0.74780884 
   69500    38.402535   -9.8613681    488.90419   -8115.2414   -7626.3372   0.74780884 
   69600    37.612984   -19.320876    478.85239   -8110.1564    -7631.304   0.74780884 
   69700     38.42056   -29.156575    489.13367   -8103.5798   -7614.4461   0.74780884 
   69800    38.356796   -31.275529    488.32189   -8115.8954   -7627.5735   0.74780884 
   69900    37.717046    -33.00089    480.17721   -8102.4624   -7622.2852   0.74780884 
   70000    38.827836   -28.752228    494.31873    -8106.722   -7612.4033   0.74780884 
   70100    37.251766   -32.278648    474.25371   -8102.9259   -7628.6722   0.74780884 
   70200    36.910526   -48.662585    469.90937   -8109.2736   -7639.3642   0.74780884 
   70300    37.570994   -55.289886    478.31781   -8096.2906   -7617.9728   0.74780884 
   70400    38.095581   -8.2877009    484.99635   -8115.1801   -7630.1837   0.74780884 
   70500     37.52692   -24.851836    477.75671   -8115.2757    -7637.519   0.74780884 
   70600    37.578601   -49.893822    478.41467   -8102.8849   -7624.4703   0.74780884 
   70700    37.941362   -9.3965633    483.03298   -8102.4864   -7619.4534   0.74780884 
   70800    38.057483   -42.026566    484.51133   -8109.7799   -7625.2686   0.74780884 
   70900    38.717065   -33.875325    492.90849   -8103.2011   -7610.2926   0.74780884 
   71000    37.299875   -11.265615    474.86619   -8098.1381   -7623.2719   0.74780884 
   71100    37.151214   -58.054333    472.97358    -8106.286   -7633.3124   0.74780884 
   71200    38.844808   -39.526447     494.5348   -8104.5347   -7609.9999   0.74780884 
   71300    38.935161    -16.66502    495.68508   -8107.3817   -7611.6967   0.74780884 
   71400    39.098741   -79.933366    497.76762   -8098.2563   -7600.4887   0.74780884 
   71500    37.340583    -70.21621    475.38445   -8108.5202   -7633.1358   0.74780884 
   71600    37.725206   -1.7083451     480.2811   -8104.5265   -7624.2454   0.74780884 
   71700    38.091074   -33.656164    484.93898   -8099.4983   -7614.5593   0.74780884 
   71800    38.648936   -69.870055    492.04114    -8098.773   -7606.7319   0.74780884 
   71900    38.024222   -50.687742    484.08789    -8066.356   -7582.2681   0.74780884 
   72000    39.364563   -28.053129    501.15182   -8075.6282   -7574.4764   0.74780884 
   72100    38.851731   -43.533556    494.62293    -8099.769   -7605.1461   0.74780884 
   72200    37.989603   -36.659348    483.64714   -8105.8141    -7622.167   0.74780884 
   72300    38.067625   -2.6426241    484.64045   -8117.5035   -7632.8631   0.74780884 
   72400    39.059788   -26.377386    497.27171   -8095.8224   -7598.5507   0.74780884 
   72500     38.46311   -51.505498    489.67538   -8095.4551   -7605.7797   0.74780884 
   72600    38.351965   -55.561818    488.26039   -8088.1803   -7599.9199   0.74780884 
   72700    37.759617   -22.485508    480.71918   -8091.8913   -7611.1722   0.74780884 
   72800    39.594221   -44.839162     504.0756   -8110.2639   -7606.1883   0.74780884 
   72900    39.310044    5.1139214    500.45773   -8108.1402   -7607.6825   0.74780884 
   73000    39.415871   -9.3542283    501.80501   -8093.6249   -7591.8199   0.74780884 
   73100    37.663011   -36.995294     479.4893   -8073.2448   -7593.7555   0.74780884 
   73200    39.320543   -22.337072    500.59139   -8085.9486   -7585.3572   0.74780884 
   73300    39.303263    4.7370652    500.37141   -8080.2418   -7579.8704   0.74780884 
   73400    38.731504   -35.216502    493.09231   -8081.1524   -7588.0601   0.74780884 
   73500    38.141291   -56.600408     485.5783   -8088.3683     -7602.79   0.74780884 
   73600    40.126465   -24.499051    510.85162   -8101.7096    -7590.858   0.74780884 
   73700      37.1119   -50.117509    472.47308    -8089.195   -7616.7219   0.74780884 
   73800    38.789493   -41.071964    493.83057   -8089.3586    -7595.528   0.74780884 
   73900    38.477043    1.7212674    489.85276   -8081.4069   -7591.5541   0.74780884 
   74000    39.021877   -53.442935    496.78906    -8090.002    -7593.213   0.74780884 
   74100    37.866214    -78.24861    482.07627   -8097.9507   -7615.8744   0.74780884 
   74200    38.789497   -29.776575    493.83063   -8079.4428   -7585.6121   0.74780884 
   74300    39.761611   -16.318957    506.20665   -8094.9587   -7588.7521   0.74780884 
   74400    39.713336   -12.562796    505.59205     -8095.39   -7589.7979   0.74780884 
   74500    38.628594   -13.254315    491.78217   -8083.0571    -7591.275   0.74780884 
   74600    38.995069   -48.384418    496.44778   -8091.1187   -7594.6709   0.74780884 
   74700    40.134665   -53.628421    510.95601   -8092.4437   -7581.4877   0.74780884 
   74800     39.90248    -9.653823    508.00005   -8083.2931   -7575.2931   0.74780884 
   74900    39.065147   -51.571314    497.33994   -8082.0986   -7584.7587   0.74780884 
   75000    38.556396   -34.076651    490.86301   -8076.1416   -7585.2786   0.74780884 
   75100    39.734522   -47.541556    505.86177   -8086.8205   -7580.9587   0.74780884 
   75200    40.238726   -19.110108    512.28081   -8065.3131   -7553.0323   0.74780884 
   75300    38.559874   -13.394224    490.90729   -8069.7231   -7578.8158   0.74780884 
   75400    39.588804   -38.257387    504.00663   -8084.8776    -7580.871   0.74780884 
   75500    40.062271    -32.83931    510.03436    -8076.732   -7566.6976   0.74780884 
   75600    39.352623   -7.9025566    500.99981   -8078.7056   -7577.7058   0.74780884 
   75700    40.087562   -19.765321    510.35635   -8078.5149   -7568.1586   0.74780884 
   75800    39.802814    13.328233    506.73121   -8086.8054   -7580.0742   0.74780884 
   75900    41.280173    11.108525    525.53952   -8075.1261   -7549.5865   0.74780884 
   76000    38.080757    25.294777    484.80763   -8087.1785   -7602.3708   0.74780884 
   76100    40.955399   -30.478976    521.40481   -8075.4871   -7554.0823   0.74780884 
   76200    39.550389   -60.528381    503.51758   -8087.6074   -7584.0898   0.74780884 
   76300    39.222298   -39.156728    499.34064   -8098.3386   -7598.9979   0.74780884 
   76400    40.120571   -53.368778    510.77658   -8110.7676    -7599.991   0.74780884 
   76500    39.616243  0.049878824    504.35597   -8080.1587   -7575.8028   0.74780884 
   76600    40.169802    12.208592    511.40335   -8075.6168   -7564.2135   0.74780884 
   76700    40.904006   -1.7802945    520.75052   -8077.4393   -7556.6888   0.74780884 
   76800    39.972044   -52.007607    508.88569    -8087.939   -7579.0533   0.74780884 
   76900    39.668165   -46.440511    505.01698   -8087.1976   -7582.1806   0.74780884 
   77000    41.822861   -30.855299     532.4485   -8082.1905    -7549.742   0.74780884 
   77100     40.47623   -22.053985    515.30449   -8079.2181   -7563.9136   0.74780884 
   77200    40.027863   -38.080422    509.59632   -8086.0518   -7576.4555   0.74780884 
   77300    40.492892   -38.252462    515.51662    -8075.617   -7560.1004   0.74780884 
   77400    39.991194   -44.323972    509.12948   -8074.2208   -7565.0913   0.74780884 
   77500    39.799956   -67.408105    506.69483     -8058.56   -7551.8652   0.74780884 
   77600    39.296883   -45.897762    500.29018   -8056.9308   -7556.6406   0.74780884 
   77700    40.865561   -51.437754    520.26108   -8069.4653   -7549.2042   0.74780884 
   77800    40.159228   -45.828898    511.26873   -8059.5604   -7548.2916   0.74780884 
   77900      41.6001   -43.554756    529.61253   -8075.8419   -7546.2294   0.74780884 
   78000    41.286211    4.0546503    525.61639   -8070.1195   -7544.5031   0.74780884 
   78100    39.678024   -0.3371934     505.1425   -8065.6817   -7560.5392   0.74780884 
   78200    40.791895  -0.52098057    519.32324   -8076.5502    -7557.227   0.74780884 
   78300    40.127841   -47.831912    510.86913   -8073.8668   -7562.9977   0.74780884 
   78400     41.47342   -34.248836    527.99976   -8061.3376   -7533.3378   0.74780884 
   78500    41.075802   -10.125345    522.93766   -8078.9528   -7556.0152   0.74780884 
   78600    39.499054   -17.307472    502.86403   -8072.4253   -7569.5613   0.74780884 
   78700    40.861499   -14.166401    520.20937   -8071.8208   -7551.6115   0.74780884 
   78800    39.793765   -40.623583    506.61601   -8065.0316   -7558.4156   0.74780884 
   78900    41.577108   -10.716093    529.31982   -8058.7748    -7529.455   0.74780884 
   79000    41.295124   -2.4206916    525.72986   -8055.0128    -7529.283   0.74780884 
   79100    42.159476   -20.901858    536.73396   -8068.2887   -7531.5547   0.74780884 
   79200    41.295609    27.313444    525.73603   -8078.5061   -7552.7701   0.74780884 
   79300    39.679863    -47.12008    505.16591   -8061.4786   -7556.3127   0.74780884 
   79400    40.967812   -15.477038    521.56284   -8061.6201   -7540.0573   0.74780884 
   79500    39.913042   -54.024537    508.13452   -8056.1974   -7548.0629   0.74780884 
   79600    41.046878    14.881862    522.56944   -8067.5752   -7545.0057   0.74780884 
   79700    39.612532   -52.151724    504.30872   -8077.5922   -7573.2835   0.74780884 
   79800    40.873732   -14.060011     520.3651    -8059.265   -7538.8999   0.74780884 
   79900    41.558176   -61.034725    529.07879   -8063.4172   -7534.3384   0.74780884 
   80000    40.123405   -43.961082    510.81267   -8068.4915   -7557.6788   0.74780884 
   80100     40.82022   -43.484191    519.68384   -8059.2804   -7539.5966   0.74780884 
   80200    39.984106   -29.368592    509.03924   -8059.7595   -7550.7203   0.74780884 
   80300    42.084403   -8.3275472    535.77821   -8077.2209   -7541.4427   0.74780884 
   80400    42.558468    4.6450436    541.81355   -8072.0854   -7530.2718   0.74780884 
   80500    41.728807    25.357276     531.2511   -8070.6308   -7539.3797   0.74780884 
   80600    41.295354   -18.233353    525.73279    -8079.728   -7553.9953   0.74780884 
   80700    40.695895   -45.084401    518.10106   -8062.9475   -7544.8465   0.74780884 
   80800    40.660995    -27.96256    517.65674   -8071.3301   -7553.6733   0.74780884 
   80900    41.252064    21.138542    525.18166   -8063.3986   -7538.2169   0.74780884 
   81000     42.04148    40.602417    535.23176   -8060.4987    -7525.267   0.74780884 
   81100    41.318827   -62.126895    526.03163   -8059.9173   -7533.8857   0.74780884 
   81200    41.525978    -48.70661    528.66888   -8049.9928   -7521.3239   0.74780884 
   81300    42.058606   -7.0505664    535.44979   -8062.3258    -7526.876   0.74780884 
   81400    40.532579   -38.279529    516.02188   -8066.1421   -7550.1202   0.74780884 
   81500    42.491072   -12.075496    540.95552   -8055.3539   -7514.3983   0.74780884 
   81600    41.498449    12.734592     528.3184   -8050.6716   -7522.3532   0.74780884 
   81700    43.458821    16.828489    553.27598   -8063.6824   -7510.4064   0.74780884 
   81800    41.430563   -7.0751187    527.45414   -8073.8769   -7546.4227   0.74780884 
   81900    42.475415   -23.287998    540.75619   -8067.4532    -7526.697   0.74780884 
   82000    41.940078   -17.801972     533.9408   -8063.2941   -7529.3533   0.74780884 
   82100    41.293626   -25.979706    525.71079   -8048.9613   -7523.2505   0.74780884 
   82200    41.718096   -5.7352965    531.11473   -8055.8053   -7524.6906   0.74780884 
   82300     40.55964   -7.3619298    516.36639   -8052.8665   -7536.5001   0.74780884 
   82400    40.753792   -37.620563    518.83815   -8069.6776   -7550.8395   0.74780884 
   82500    41.541133   -21.971933    528.86181    -8048.468   -7519.6062   0.74780884 
   82600    39.857188   -28.535279    507.42345   -8061.8333   -7554.4098   0.74780884 
   82700    41.068626    30.287761    522.84631   -8043.6188   -7520.7725   0.74780884 
   82800    43.044084   -2.8457715    547.99594   -8057.7925   -7509.7965   0.74780884 
   82900    42.422226   -15.391404    540.07905    -8043.939     -7503.86   0.74780884 
   83000    40.625524   -44.368444    517.20516   -8051.0819   -7533.8768   0.74780884 
   83100    41.736192   -56.793891    531.34512   -8059.6365   -7528.2914   0.74780884 
   83200    41.928623    15.509679    533.79496   -8070.6018   -7536.8068   0.74780884 
   83300     43.06773   -10.588704    548.29698   -8060.8417   -7512.5447   0.74780884 
   83400     42.30194   -24.593879    538.54768   -8035.1519   -7496.6042   0.74780884 
   83500      41.1852   -25.582136    524.33042   -8052.7075   -7528.3771   0.74780884 
   83600    40.757492   -62.201014    518.88526   -8066.2889   -7547.4036   0.74780884 
   83700    41.247655   -38.607547    525.12553   -8060.5483   -7535.4228   0.74780884 
   83800    42.128774    1.7386278     536.3431   -8060.3723   -7524.0292   0.74780884 
   83900    41.678947   -20.350031    530.61633   -8062.1448   -7531.5285   0.74780884 
   84000    41.887771    18.734618    533.27488   -8050.2174   -7516.9425   0.74780884 
   84100    42.983627   -22.197678    547.22626   -8042.8758   -7495.6495   0.74780884 
   84200    40.770778    6.3174117     519.0544   -8050.7354    -7531.681   0.74780884 
   84300    41.769603   -27.286339    531.77047   -8053.2898   -7521.5193   0.74780884 
   84400    41.667048   -6.4309915    530.46484   -8030.3843   -7499.9194   0.74780884 
   84500    42.300647   -33.664512    538.53121   -8049.7317   -7511.2004   0.74780884 
   84600    40.809783   -18.052843    519.55097   -8055.7687   -7536.2178   0.74780884 
   84700     42.10018   -43.962811    535.97906    -8056.856   -7520.8769   0.74780884 
   84800    42.117977   -65.319652    536.20564    -8063.691   -7527.4853   0.74780884 
   84900    42.444434   -65.027858    540.36177   -8044.4688   -7504.1071   0.74780884 
   85000     41.61987   -87.437243    529.86422   -8053.6809   -7523.8166   0.74780884 
   85100    42.611949   -4.6443995    542.49442   -8056.7277   -7514.2333   0.74780884 
   85200    42.296154   -43.281361    538.47402   -8038.4928   -7500.0188   0.74780884 
   85300    43.129884   -1.8482809    549.08826   -8056.3033   -7507.2151   0.74780884 
   85400    41.382296    10.930367    526.83965   -8043.3279   -7516.4882   0.74780884 
   85500    42.600025    10.871131    542.34261   -8043.2493   -7500.9067   0.74780884 
   85600    42.179384   -17.122347    536.98741   -8050.8915    -7513.904   0.74780884 
   85700    41.449368   -20.007914    527.69355   -8036.1408   -7508.4473   0.74780884 
   85800     42.02858    26.008393    535.06752   -8040.3931   -7505.3256   0.74780884 
   85900    44.524679   -22.212742    566.84545   -8030.2312   -7463.3858   0.74780884 
   86000    42.974391   -23.277353    547.10868   -8038.0738   -7490.9651   0.74780884 
[...]
  179300    269.62582    9.0210975    3432.6171   -5075.0246   -1642.4075   0.74780884 
  179400    262.65261    35.856853    3343.8408   -5022.9995   -1679.1586   0.74780884 
  179500    274.22722    35.336848    3491.1976    -5047.584   -1556.3863   0.74780884 
  179600    276.43854    114.45338      3519.35   -5006.7722   -1487.4222   0.74780884 
  179700    272.72021    26.503777    3472.0118   -4966.8253   -1494.8135   0.74780884 
  179800    274.84124    119.65407    3499.0147   -4983.4499   -1484.4351   0.74780884 
  179900    273.77356    30.501542    3485.4221   -5005.8393   -1520.4172   0.74780884 
  180000    272.00202   -65.155524    3462.8686    -4945.816   -1482.9474   0.74780884 
  180100    271.43952    6.7494533    3455.7073   -4915.0656   -1459.3583   0.74780884 
  180200    273.46139    51.818699    3481.4478   -4943.5752   -1462.1274   0.74780884 
  180300    273.66304    117.12404    3484.0151   -4905.8743   -1421.8592   0.74780884 
  180400     276.9873    16.381974    3526.3363   -4956.1682    -1429.832   0.74780884 
  180500    269.42806    43.008251    3430.0993   -4933.3472   -1503.2479   0.74780884 
  180600    277.77893      97.1124    3536.4146   -4980.5148   -1444.1002   0.74780884 
  180700    283.49239    10.478945    3609.1529    -4987.842   -1378.6891   0.74780884 
  180800     278.6184    129.20852    3547.1019   -4970.1744   -1423.0725   0.74780884 
  180900    274.23634    28.212333    3491.3138   -4958.0365   -1466.7227   0.74780884 
  181000    281.46664    84.083378     3583.363   -4935.5846   -1352.2216   0.74780884 
  181100    280.93319    22.082344    3576.5715   -4898.3165    -1321.745   0.74780884 
  181200    277.12271    27.227695    3528.0602   -4839.9265   -1311.8662   0.74780884 
  181300    276.84132    45.241525    3524.4778   -4928.9465   -1404.4687   0.74780884 
  181400    271.18157    45.668512    3452.4233   -4964.7335   -1512.3102   0.74780884 
  181500    277.10379    60.412842    3527.8194   -5026.3472   -1498.5278   0.74780884 
  181600    274.35657     109.5988    3492.8444   -4960.2774   -1467.4331   0.74780884 
  181700    277.23959    43.212962    3529.5483    -4916.523   -1386.9747   0.74780884 
  181800    274.72223    138.05677    3497.4996   -4952.5119   -1455.0124   0.74780884 
  181900    278.44668    78.369104    3544.9157    -4916.631   -1371.7153   0.74780884 
  182000    278.76376   -27.865803    3548.9525   -4908.9858   -1360.0333   0.74780884 
  182100    280.28024   -46.159719    3568.2589   -4931.3157   -1363.0568   0.74780884 
  182200    270.99579   -18.690131    3450.0582   -4910.2939   -1460.2357   0.74780884 
  182300    278.59555    22.840233     3546.811   -4901.0918   -1354.2809   0.74780884 
  182400    274.98451    66.009765    3500.8387    -4949.095   -1448.2564   0.74780884 
  182500    271.35161    32.509301    3454.5881   -5117.6981     -1663.11   0.74780884 
  182600    278.02782    34.950289    3539.5832   -5030.4732     -1490.89   0.74780884 
  182700    273.11579   -27.069622     3477.048   -5022.9235   -1545.8755   0.74780884 
  182800    271.54653    36.553921    3457.0696   -5015.3178   -1558.2481   0.74780884 
  182900    274.64306   -49.800273    3496.4917   -4965.9194   -1469.4277   0.74780884 
  183000    277.08341   -38.230864    3527.5599   -4898.6007   -1371.0408   0.74780884 
  183100    278.61291     48.99737    3547.0321    -4927.859   -1380.8269   0.74780884 
  183200    280.47149    123.14193    3570.6936   -4837.8048   -1267.1111   0.74780884 
  183300    283.07668    51.449883    3603.8604   -4878.2711   -1274.4107   0.74780884 
  183400     274.2186    2.4684786    3491.0879   -4921.5972   -1430.5094   0.74780884 
  183500    280.84054    2.2850156    3575.3921   -5050.7189   -1475.3267   0.74780884 
  183600    275.03322    18.454262    3501.4589   -4911.2994   -1409.8405   0.74780884 
  183700    279.04633   -33.398712    3552.5499   -4998.5744   -1446.0244   0.74780884 
  183800    277.45994    45.028848    3532.3535   -5053.3452   -1520.9917   0.74780884 
  183900    275.80486    54.703656    3511.2827   -5036.8504   -1525.5677   0.74780884 
  184000    274.72347   -9.0398196    3497.5155   -4978.2661   -1480.7507   0.74780884 
  184100    271.75137    11.188592    3459.6774   -4946.3791   -1486.7017   0.74780884 
  184200     281.6614    -10.38433    3585.8425   -4921.9354   -1336.0929   0.74780884 
  184300    282.29537   -30.982517    3593.9136   -4928.9051   -1334.9915   0.74780884 
  184400    273.82522    90.595318    3486.0797   -4886.1135   -1400.0338   0.74780884 
  184500    276.16223    119.54968    3515.8323   -4948.2241   -1432.3918   0.74780884 
  184600    278.50101    66.428877    3545.6074   -4961.0096   -1415.4021   0.74780884 
  184700     279.0119    137.12342    3552.1116   -5059.4995   -1507.3879   0.74780884 
  184800    269.11867    131.49062    3426.1605    -5027.275   -1601.1146   0.74780884 
  184900     273.6083    57.233509    3483.3181   -4986.1342    -1502.816   0.74780884 
  185000    280.43994    88.473196     3570.292   -5009.3544   -1439.0624   0.74780884 
  185100    282.51775   -30.875163    3596.7447   -4914.2961   -1317.5515   0.74780884 
  185200     279.7526   -20.852976    3561.5414     -4905.95   -1344.4086   0.74780884 
  185300    274.17415   -120.44046     3490.522   -4955.1027   -1464.5806   0.74780884 
  185400    278.94526   -4.5729712    3551.2632   -4913.3051   -1362.0419   0.74780884 
  185500    276.38948    190.43835    3518.7254   -4957.2579   -1438.5325   0.74780884 
  185600     279.2043   -3.9901198    3554.5611   -4998.3133   -1443.7522   0.74780884 
  185700    275.64004   -30.460281    3509.1843   -4940.0282   -1430.8438   0.74780884 
  185800    271.95537    42.861352    3462.2746   -4917.9509   -1455.6763   0.74780884 
  185900    282.96636    55.755232     3602.456   -4929.7749   -1327.3189   0.74780884 
  186000    275.07587    103.14264    3502.0019   -4924.1338   -1422.1319   0.74780884 
  186100    278.44901   -24.574895    3544.9454   -4987.4915   -1442.5461   0.74780884 
  186200    271.27146   -59.188291    3453.5678   -4879.2508    -1425.683   0.74780884 
  186300    278.59781   -3.0423258    3546.8398   -4890.1771   -1343.3373   0.74780884 
  186400    274.26863   -9.7993698    3491.7248   -4930.0301   -1438.3053   0.74780884 
  186500    283.84927    16.548059    3613.6964   -4998.2456   -1384.5493   0.74780884 
  186600    283.15967     34.58149     3604.917   -4907.7856   -1302.8686   0.74780884 
  186700    276.85761    11.236526    3524.6852   -4933.0326   -1408.3474   0.74780884 
  186800    276.14002    17.790571    3515.5496   -4985.3551   -1469.8056   0.74780884 
  186900    290.70597    18.690967    3700.9892    -4895.391   -1194.4018   0.74780884 
  187000    278.94408    -37.34869    3551.2482   -4904.5023   -1353.2542   0.74780884 
  187100    276.42751   -23.410505    3519.2096    -4965.862   -1446.6524   0.74780884 
  187200    272.93738    49.101357    3474.7767   -4957.4995   -1482.7228   0.74780884 
  187300    282.09843    80.970442    3591.4063   -4902.2734   -1310.8671   0.74780884 
  187400    284.70051    47.763131    3624.5334   -4873.7472   -1249.2138   0.74780884 
  187500    280.71782    44.036885    3573.8297   -4867.1795   -1293.3497   0.74780884 
  187600    280.63363   -9.1170937    3572.7579   -4865.8275   -1293.0696   0.74780884 
  187700    274.01417   -8.0310851    3488.4852   -4894.4562   -1405.9709   0.74780884 
  187800    277.92881     20.47218    3538.3227    -4888.675   -1350.3522   0.74780884 
  187900    276.81877     59.93156    3524.1908   -4949.8266   -1425.6358   0.74780884 
  188000    277.42064    88.032518    3531.8532   -5008.9758   -1477.1226   0.74780884 
  188100    279.86665    -10.18912    3562.9935     -4914.99   -1351.9965   0.74780884 
  188200    272.16185    41.815449    3464.9033   -4866.0165   -1401.1132   0.74780884 
  188300    270.58382    27.489461    3444.8133     -4925.84   -1481.0267   0.74780884 
  188400     275.1475    50.718586    3502.9138    -4934.593   -1431.6792   0.74780884 
  188500     276.6531    15.834052    3522.0817   -4881.7829   -1359.7012   0.74780884 
  188600     276.6705   -28.751091    3522.3032   -4883.3432     -1361.04   0.74780884 
  188700    282.16765    14.442595    3592.2876    -4916.896   -1324.6084   0.74780884 
  188800    284.98552    19.552069    3628.1619   -4944.1726   -1316.0107   0.74780884 
  188900     286.9564    91.549312    3653.2533   -4926.2698   -1273.0165   0.74780884 
  189000     279.1534    163.63072     3553.913   -4833.2268   -1279.3138   0.74780884 
  189100    286.90325    86.787234    3652.5767   -4862.8986   -1210.3219   0.74780884 
  189200    285.44195    21.942724    3633.9727    -4869.322   -1235.3492   0.74780884 
  189300    278.63919   -4.0453097    3547.3666   -4880.9149   -1333.5483   0.74780884 
  189400    273.39021    74.056184    3480.5417   -4886.5505   -1406.0088   0.74780884 
  189500    276.45257    97.256968    3519.5286   -4893.2809   -1373.7523   0.74780884 
  189600    277.69569   -37.758915    3535.3549   -4927.3356   -1391.9807   0.74780884 
  189700    277.68952    97.233171    3535.2763   -4950.9487   -1415.6723   0.74780884 
  189800    277.72424    29.152277    3535.7183   -4910.3136   -1374.5953   0.74780884 
  189900    280.65092   -52.559076     3572.978   -4849.0126   -1276.0345   0.74780884 
  190000    272.87918   -13.960735    3474.0357   -4852.4216   -1378.3859   0.74780884 
  190100      277.276    10.221333    3530.0118   -4872.7115   -1342.6997   0.74780884 
  190200    279.41736    90.560043    3557.2735   -4844.4583   -1287.1849   0.74780884 
  190300    271.67546    57.790329     3458.711   -5008.8581   -1550.1471   0.74780884 
  190400    281.43319    73.009802    3582.9371   -4892.1507   -1309.2136   0.74780884 
  190500    283.22272    94.354219    3605.7196   -4887.7323   -1282.0127   0.74780884 
  190600    278.41551    42.374671    3544.5189   -4978.5065   -1433.9876   0.74780884 
  190700    283.70255    51.893761    3611.8284   -4921.6896   -1309.8612   0.74780884 
  190800    283.63817    -51.00075    3611.0088   -4939.1733   -1328.1645   0.74780884 
  190900    277.37471    55.423845    3531.2684   -4795.3277   -1264.0592   0.74780884 
  191000    281.92658   -106.27531    3589.2185   -4816.4478   -1227.2293   0.74780884 
  191100    280.29134    46.617369    3568.4001   -4765.2286   -1196.8285   0.74780884 
  191200    284.66781   -29.138481    3624.1172   -4909.2113   -1285.0941   0.74780884 
  191300    285.32174    73.018037    3632.4424   -4944.3241   -1311.8817   0.74780884 
  191400    270.54064    106.32233    3444.2636   -4905.9605   -1461.6969   0.74780884 
  191500    274.92996    130.20216    3500.1443   -4931.4769   -1431.3327   0.74780884 
  191600    277.80998    94.719692    3536.8099   -4956.0147   -1419.2048   0.74780884 
  191700     278.7715    31.810714     3549.051   -4833.5233   -1284.4723   0.74780884 
  191800    289.38917   -102.11426     3684.225   -4843.3758   -1159.1508   0.74780884 
  191900    289.03602   -20.149693     3679.729   -4832.5973   -1152.8683   0.74780884 
  192000    273.31701    30.142494    3479.6097   -4779.8546   -1300.2449   0.74780884 
  192100    285.12299    -15.83497    3629.9121   -4896.1087   -1266.1966   0.74780884 
  192200    279.67098    65.917342    3560.5024   -4859.5866   -1299.0842   0.74780884 
  192300    292.09177   -12.215383    3718.6319   -4876.8856   -1158.2537   0.74780884 
  192400    284.62436   -46.165548    3623.5641   -4854.2334   -1230.6693   0.74780884 
  192500    283.07965   -2.9653796    3603.8982   -4841.9183   -1238.0201   0.74780884 
  192600    283.43661   -6.2870227    3608.4427   -4837.1149   -1228.6722   0.74780884 
  192700    285.50898     64.04691    3634.8261   -4777.5212   -1142.6951   0.74780884 
  192800    281.36004    201.02932    3582.0059   -4921.1266   -1339.1207   0.74780884 
  192900    281.05906    179.48806    3578.1741   -4890.9965   -1312.8224   0.74780884 
  193000    286.49272     29.22279    3647.3502   -4868.5236   -1221.1734   0.74780884 
  193100    278.96493    102.34076    3551.5136    -4854.504   -1302.9904   0.74780884 
  193200    283.02765    58.202732    3603.2362   -4844.4682    -1241.232   0.74780884 
  193300    280.10821    29.976183    3566.0687   -4930.9605   -1364.8918   0.74780884 
  193400    279.10413    106.66478    3553.2858    -4950.351   -1397.0653   0.74780884 
  193500    281.24046   -117.39222    3580.4835   -5013.1984   -1432.7149   0.74780884 
  193600    284.93226   -41.436315    3627.4839   -4970.7872   -1343.3033   0.74780884 
  193700    282.60697     143.5671    3597.8805   -4913.3311   -1315.4505   0.74780884 
  193800     281.4412   0.70166039    3583.0391   -4892.2696   -1309.2304   0.74780884 
  193900    284.68517   -3.6020836    3624.3382   -4829.6373   -1205.2992   0.74780884 
  194000    275.87262    6.5535975    3512.1453   -4767.2683   -1255.1231   0.74780884 
  194100    286.70679    1.5539747    3650.0756   -4873.8272   -1223.7516   0.74780884 
  194200       279.49   -7.6408085    3558.1982   -4857.0206   -1298.8224   0.74780884 
  194300    289.42876    63.109287    3684.7291   -4802.9956   -1118.2666   0.74780884 
  194400    283.42192    123.72073    3608.2557   -4853.9572   -1245.7015   0.74780884 
  194500    282.71903    61.020814    3599.3073   -4794.4661   -1195.1588   0.74780884 
  194600    281.75756   -29.474529    3587.0667   -4833.7712   -1246.7045   0.74780884 
  194700    277.03388   -42.447698    3526.9293   -4864.6954   -1337.7661   0.74780884 
  194800    274.29976    92.748367    3492.1212   -4832.2076   -1340.0864   0.74780884 
  194900    290.98181    95.804916    3704.5009    -4862.722   -1158.2211   0.74780884 
  195000    281.86538    87.165791    3588.4393   -4803.0048   -1214.5655   0.74780884 
  195100    288.24795    37.883644    3669.6961   -4885.9745   -1216.2784   0.74780884 
  195200    274.74411   -6.7284736    3497.7781    -4856.972   -1359.1939   0.74780884 
  195300    276.47712    45.125334    3519.8412    -4839.558   -1319.7168   0.74780884 
  195400    284.57743    36.340689    3622.9665   -4828.4774   -1205.5108   0.74780884 
  195500    287.30796    126.51239    3657.7291   -4803.5431    -1145.814   0.74780884 
  195600    280.86794    67.508174    3575.7409   -4876.6156   -1300.8747   0.74780884 
  195700    280.08057    36.587988    3565.7169   -4839.4071   -1273.6902   0.74780884 
  195800     285.4964    54.629258     3634.666   -4864.6828   -1230.0168   0.74780884 
  195900    281.77348    14.092139    3587.2694   -4876.2062   -1288.9368   0.74780884 
  196000    281.86695    24.808833    3588.4593   -4862.9529   -1274.4937   0.74780884 
  196100    286.04116    7.9107685    3641.6014   -4865.8283   -1224.2269   0.74780884 
  196200    285.10752    112.42601    3629.7152   -4815.3752     -1185.66   0.74780884 
  196300    282.58717   -12.995492    3597.6285   -4883.3328   -1285.7043   0.74780884 
  196400    281.89969    72.392949    3588.8762   -4818.6283   -1229.7521   0.74780884 
  196500    287.08193    40.049547    3654.8514   -4857.1332   -1202.2817   0.74780884 
  196600    282.08561    23.640679    3591.2432   -4808.8658   -1217.6226   0.74780884 
  196700    281.45015    66.332496     3583.153   -4833.9785   -1250.8255   0.74780884 
  196800    286.81404    69.756702    3651.4409   -4887.5444   -1236.1035   0.74780884 
  196900    279.12325    50.711115    3553.5291   -4818.8157   -1265.2866   0.74780884 
  197000    284.01705   -38.134508    3615.8323   -4828.2642   -1212.4319   0.74780884 
  197100    288.68301   -26.529596    3675.2348   -4825.3112   -1150.0764   0.74780884 
  197200    279.44176    95.799589    3557.5842    -4910.113   -1352.5288   0.74780884 
  197300    287.17058    96.783848    3655.9801   -4782.7733   -1126.7932   0.74780884 
  197400    286.07902    27.003848    3642.0834   -4874.6846   -1232.6012   0.74780884 
  197500    282.83177     24.81901    3600.7425   -4816.1019   -1215.3594   0.74780884 
  197600    287.28233   -6.2193211    3657.4027   -4838.0974   -1180.6947   0.74780884 
  197700    286.63751    99.995961    3649.1936   -4930.1208   -1280.9273   0.74780884 
  197800    279.79656    46.883776    3562.1011    -4899.039   -1336.9379   0.74780884 
  197900    283.05851    47.811978    3603.6291    -4927.296   -1323.6668   0.74780884 
  198000    289.21345    52.572047     3681.988   -4901.4734   -1219.4854   0.74780884 
  198100    281.44995    78.350132    3583.1504   -4874.9898   -1291.8393   0.74780884 
  198200    288.35491    104.88627    3671.0578   -4799.0444   -1127.9867   0.74780884 
  198300     289.8417    157.55605    3689.9862   -4835.1282    -1145.142   0.74780884 
  198400    290.66399   -60.076373    3700.4548   -4855.5477   -1155.0929   0.74780884 
  198500    287.64763    21.421194    3662.0534    -4838.134   -1176.0807   0.74780884 
  198600    286.46192    121.90439    3646.9581   -4769.7252   -1122.7671   0.74780884 
  198700    286.91585     101.2892     3652.737   -4774.0633   -1121.3263   0.74780884 
  198800      286.344    16.745611    3645.4568   -4832.6944   -1187.2376   0.74780884 
  198900    291.92639    39.740361    3716.5265   -4732.4718   -1015.9454   0.74780884 
  199000    285.02741   -132.56255    3628.6953   -4756.7948   -1128.0995   0.74780884 
  199100    289.78629   -31.693025    3689.2807   -4857.7763   -1168.4956   0.74780884 
  199200    282.29512    6.2499693    3593.9104   -4689.7201   -1095.8096   0.74780884 
  199300    290.91483     24.39737    3703.6483   -4886.8293    -1183.181   0.74780884 
  199400    286.03349    21.732993    3641.5037   -4854.7145   -1213.2108   0.74780884 
  199500    284.91474    172.85448    3627.2609   -4897.7752   -1270.5144   0.74780884 
  199600    290.58254    87.370943    3699.4179   -4706.4251   -1007.0072   0.74780884 
  199700    291.58348    55.980032    3712.1609   -4809.4177   -1097.2568   0.74780884 
  199800    286.95693    35.424941    3653.2601   -4798.8737   -1145.6136   0.74780884 
  199900    292.60331     19.26151    3725.1443   -4871.4345   -1146.2902   0.74780884 
  200000    288.32669    95.348241    3670.6985   -4789.6644   -1118.9659   0.74780884 
  200100    282.84633    -17.15478    3600.9279   -4768.2609    -1167.333   0.74780884 
Loop time of 286.885 on 12 procs for 100000 steps with 4272 atoms

Performance: 30.117 ns/day, 0.797 hours/ns, 348.571 timesteps/s
98.5% CPU use with 12 MPI tasks x 1 OpenMP threads

MPI task timing breakdown:
Section |  min time  |  avg time  |  max time  |%varavg| %total
---------------------------------------------------------------
Pair    | 184.92     | 197.8      | 211.32     |  57.8 | 68.95
Bond    | 10.06      | 11.285     | 12.236     |  18.0 |  3.93
Kspace  | 51.485     | 64.464     | 77.332     |  97.6 | 22.47
Neigh   | 0.68252    | 0.68295    | 0.68323    |   0.0 |  0.24
Comm    | 7.0873     | 8.4855     | 10.619     |  34.8 |  2.96
Output  | 0.036886   | 0.045545   | 0.13702    |  12.9 |  0.02
Modify  | 2.6917     | 3.0328     | 3.317      |  11.2 |  1.06
Other   |            | 1.093      |            |       |  0.38

Nlocal:    356 ave 383 max 340 min
Histogram: 2 0 4 1 3 0 1 0 0 1
Nghost:    2831.75 ave 2872 max 2802 min
Histogram: 2 0 1 3 2 2 0 0 1 1
Neighs:    181056 ave 192132 max 172080 min
Histogram: 2 1 1 1 2 1 3 0 0 1

Total # of neighbors = 2172671
Ave neighs/atom = 508.584
Ave special neighs/atom = 5.39326
Neighbor list builds = 155
Dangerous builds = 0
System init for write_restart ...
Ewald initialization ...
WARNING: Using 12-bit tables for long-range coulomb (../kspace.cpp:321)
  G vector (1/distance) = 0.112517
  estimated absolute RMS force accuracy = 0.0417508
  estimated relative force accuracy = 0.000125731
  KSpace vectors: actual max1d max3d = 215 5 665
                  kxmax kymax kzmax  = 4 4 5
Total wall time: 0:09:27
