
                                 *****************
                                 * O   R   C   A *
                                 *****************

           --- An Ab Initio, DFT and Semiempirical electronic structure package ---

                  #######################################################
                  #                        -***-                        #
                  #  Department of molecular theory and spectroscopy    #
                  #              Directorship: Frank Neese              #
                  # Max Planck Institute for Chemical Energy Conversion #
                  #                  D-45470 Muelheim/Ruhr              #
                  #                       Germany                       #
                  #                                                     #
                  #                  All rights reserved                #
                  #                        -***-                        #
                  #######################################################


                         Program Version 4.0.1.2 - RELEASE -


 With contributions from (in alphabetic order):
   Daniel Aravena         : Magnetic Properties
   Michael Atanasov       : Ab Initio Ligand Field Theory
   Ute Becker             : Parallelization
   Martin Brehm           : Molecular dynamics
   Dmytro Bykov           : SCF Hessian
   Vijay G. Chilkuri      : MRCI spin determinant printing
   Dipayan Datta          : RHF DLPNO-CCSD density
   Achintya Kumar Dutta   : EOM-CC, STEOM-CC
   Dmitry Ganyushin       : Spin-Orbit,Spin-Spin,Magnetic field MRCI
   Yang Guo               : DLPNO-NEVPT2, CIM, IAO-localization
   Andreas Hansen         : Spin unrestricted coupled pair/coupled cluster methods
   Lee Huntington         : MR-EOM, pCC
   Robert Izsak           : Overlap fitted RIJCOSX, COSX-SCS-MP3, EOM
   Christian Kollmar      : KDIIS, OOCD, Brueckner-CCSD(T), CCSD density
   Simone Kossmann        : Meta GGA functionals, TD-DFT gradient, OOMP2, MP2 Hessian
   Martin Krupicka        : AUTO-CI
   Dagmar Lenk            : GEPOL surface
   Dimitrios Liakos       : Extrapolation schemes; parallel MDCI
   Dimitrios Manganas     : ROCIS; embedding schemes
   Dimitrios Pantazis     : SARC Basis sets
   Taras Petrenko         : DFT Hessian,TD-DFT gradient, ASA, ECA, R-Raman, ABS, FL, XAS/XES, NRVS
   Peter Pinski           : DLPNO-MP2
   Christoph Reimann      : Effective Core Potentials
   Marius Retegan         : Local ZFS, SOC
   Christoph Riplinger    : Optimizer, TS searches, QM/MM, DLPNO-CCSD(T), (RO)-DLPNO pert. Triples
   Tobias Risthaus        : Range-separated hybrids, TD-DFT gradient, RPA, STAB
   Michael Roemelt        : Restricted open shell CIS
   Masaaki Saitow         : Open-shell DLPNO
   Barbara Sandhoefer     : DKH picture change effects
   Kantharuban Sivalingam : CASSCF convergence, NEVPT2, FIC-MRCI
   Georgi Stoychev        : AutoAux
   Boris Wezisla          : Elementary symmetry handling
   Frank Wennmohs         : Technical directorship


 We gratefully acknowledge several colleagues who have allowed us to
 interface, adapt or use parts of their codes:
   Stefan Grimme, W. Hujo, H. Kruse,             : VdW corrections, initial TS optimization,
                  C. Bannwarth                     DFT functionals, gCP, sTDA/sTD-DF
   Ed Valeev                                     : LibInt (2-el integral package), F12 methods
   Garnet Chan, S. Sharma, J. Yang, R. Olivares  : DMRG
   Ulf Ekstrom                                   : XCFun DFT Library
   Mihaly Kallay                                 : mrcc  (arbitrary order and MRCC methods)
   Andreas Klamt, Michael Diedenhofen            : otool_cosmo (COSMO solvation model)
   Jiri Pittner, Ondrej Demel                    : Mk-CCSD
   Frank Weinhold                                : gennbo (NPA and NBO analysis)
   Christopher J. Cramer and Donald G. Truhlar   : smd solvation model


 Your calculation uses the libint2 library for the computation of 2-el integrals
 For citations please refer to: http://libint.valeyev.net

 This ORCA versions uses:
   CBLAS   interface :  Fast vector & matrix operations
   LAPACKE interface :  Fast linear algebra routines
   SCALAPACK package :  Parallel linear algebra routines


Your calculation utilizes the basis: 6-31+G**
   H-He, Li-Ne : W. J. Hehre, R. Ditchfield and J.A. Pople, J. Chem. Phys. 56, 2257 (1972).
                 Note: He and Ne are unpublished basis sets taken from the Gaussian program.
                 Note: Li and B from J. D. Dill and J. A. Pople, J. Chem. Phys. 62, 2921 (1975).
   Na - Ar     : M. M. Francl, W. J. Pietro, W. J. Hehre, J. S. Binkley, M. S. Gordon, 
                 D. J. DeFrees and J. A. Pople, J. Chem. Phys. 77, 3654 (1982).
   K - Zn      : V. A. Rassolov, J. A. Pople, M. A. Ratner, and T. L. Windus, J. Chem. Phys. 109, 1223 (1998).
   Additional Pol./Diff. from the 6-311G equivalent.

================================================================================
                                        WARNINGS
                       Please study these warnings very carefully!
================================================================================

Warning: TCutStore was < 0. Adjusted to Thresh (uncritical)

WARNING: Geometry Optimization
  ===> : Switching off AutoStart
         For restart on a previous wavefunction, please use MOREAD

INFO   : the flag for use of LIBINT has been found!

================================================================================
                                       INPUT FILE
================================================================================
NAME = OEG2.inp
|  1> ! RKS B3LYP 6-31+G** NormalSCF Opt NOSOSCF CHELPG
|  2> 
|  3> *xyz 0 1
|  4> S 0.62841 -1.34418 0.64721
|  5> C 0.62841 0.49382 0.64721
|  6> C -0.37118 1.02347 -0.38620
|  7> O -0.35089 2.46085 -0.36672
|  8> C -1.26981 2.99758 -1.31455
|  9> C -1.20854 4.51915 -1.25580
| 10> O -2.12399 5.08136 -2.19960
| 11> C -2.09010 6.50090 -2.16833
| 12> H 1.61608 0.91495 0.42045
| 13> H 0.36901 0.91492 1.62678
| 14> H -1.38831 0.68292 -0.15337
| 15> H -0.10588 0.68175 -1.39474
| 16> H -2.28798 2.65830 -1.08980
| 17> H -1.01644 2.65484 -2.32481
| 18> H -0.18906 4.85740 -1.47794
| 19> H -1.45889 4.86099 -0.24406
| 20> H -2.80447 6.87843 -2.90493
| 21> H -1.09294 6.86721 -2.43019
| 22> H -2.38055 6.87029 -1.18000
| 23> **                         ****END OF INPUT****
================================================================================

                       *****************************
                       * Geometry Optimization Run *
                       *****************************

Geometry optimization settings:
Update method            Update   .... BFGS
Choice of coordinates    CoordSys .... Redundant Internals
Initial Hessian          InHess   .... Almoef's Model

Convergence Tolerances:
Energy Change            TolE     ....  5.0000e-06 Eh
Max. Gradient            TolMAXG  ....  3.0000e-04 Eh/bohr
RMS Gradient             TolRMSG  ....  1.0000e-04 Eh/bohr
Max. Displacement        TolMAXD  ....  4.0000e-03 bohr
RMS Displacement         TolRMSD  ....  2.0000e-03 bohr

------------------------------------------------------------------------------
                        ORCA OPTIMIZATION COORDINATE SETUP
------------------------------------------------------------------------------

The optimization will be done in new redundant internal coordinates
Making redundant internal coordinates   ...  (new redundants) done
Evaluating the initial hessian          ...  (Almloef) done
Evaluating the coordinates              ...  done
Calculating the B-matrix                .... done
Calculating the G-matrix                .... done
Diagonalizing the G-matrix              .... done
Small eigenvalue found = 8.322e-03
The first mode is                       ....   29
The number of degrees of freedom        ....   51

    -----------------------------------------------------------------
                    Redundant Internal Coordinates


    -----------------------------------------------------------------
         Definition                    Initial Value    Approx d2E/dq
    -----------------------------------------------------------------
      1. B(C   1,S   0)                  1.8380         0.324901   
      2. B(C   2,C   1)                  1.5322         0.370564   
      3. B(O   3,C   2)                  1.4377         0.469726   
      4. B(C   4,O   3)                  1.4251         0.491921   
      5. B(C   5,C   4)                  1.5239         0.381990   
      6. B(O   6,C   5)                  1.4300         0.483131   
      7. B(C   7,O   6)                  1.4203         0.500670   
      8. B(H   8,C   1)                  1.0974         0.350457   
      9. B(H   9,C   1)                  1.0973         0.350511   
     10. B(H  10,C   2)                  1.0976         0.350178   
     11. B(H  11,C   2)                  1.0974         0.350429   
     12. B(H  12,C   4)                  1.0965         0.351614   
     13. B(H  13,C   4)                  1.0965         0.351615   
     14. B(H  14,C   5)                  1.0969         0.351140   
     15. B(H  15,C   5)                  1.0969         0.351112   
     16. B(H  16,C   7)                  1.0934         0.355684   
     17. B(H  17,C   7)                  1.0941         0.354701   
     18. B(H  18,C   7)                  1.0944         0.354389   
     19. A(H   8,C   1,H   9)          104.4744         0.288381   
     20. A(S   0,C   1,H   8)          112.5666         0.331512   
     21. A(S   0,C   1,C   2)          110.2232         0.372959   
     22. A(S   0,C   1,H   9)          112.5658         0.331520   
     23. A(C   2,C   1,H   8)          108.3691         0.322450   
     24. A(C   2,C   1,H   9)          108.3730         0.322458   
     25. A(C   1,C   2,H  11)          110.7619         0.322445   
     26. A(O   3,C   2,H  10)          108.6878         0.333250   
     27. A(C   1,C   2,O   3)          109.1029         0.375046   
     28. A(O   3,C   2,H  11)          108.6852         0.333290   
     29. A(H  10,C   2,H  11)          108.8057         0.288335   
     30. A(C   1,C   2,H  10)          110.7464         0.322408   
     31. A(C   2,O   3,C   4)          111.0047         0.391479   
     32. A(H  12,C   4,H  13)          107.8605         0.288672   
     33. A(C   5,C   4,H  13)          109.7747         0.324235   
     34. A(O   3,C   4,H  13)          110.2472         0.336045   
     35. A(C   5,C   4,H  12)          109.7779         0.324235   
     36. A(O   3,C   4,H  12)          110.2363         0.336045   
     37. A(O   3,C   4,C   5)          108.9340         0.380045   
     38. A(H  14,C   5,H  15)          107.6279         0.288547   
     39. A(O   6,C   5,H  15)          109.8850         0.334959   
     40. A(C   4,C   5,H  15)          109.7274         0.324159   
     41. A(O   6,C   5,H  14)          109.8834         0.334964   
     42. A(C   4,C   5,H  14)          109.7224         0.324163   
     43. A(C   4,C   5,O   6)          109.9599         0.378860   
     44. A(C   5,O   6,C   7)          111.2932         0.394629   
     45. A(O   6,C   7,H  18)          110.5433         0.337474   
     46. A(H  16,C   7,H  17)          108.5800         0.289590   
     47. A(O   6,C   7,H  17)          110.5547         0.337524   
     48. A(H  16,C   7,H  18)          108.5706         0.289550   
     49. A(O   6,C   7,H  16)          108.3420         0.337679   
     50. A(H  17,C   7,H  18)          110.1835         0.289424   
     51. D(H  10,C   2,C   1,S   0)     60.4541         0.010975   
     52. D(H  10,C   2,C   1,H   8)   -175.9556         0.010975   
     53. D(H  11,C   2,C   1,H   9)    176.0480         0.010975   
     54. D(O   3,C   2,C   1,H   9)     56.4519         0.010975   
     55. D(O   3,C   2,C   1,S   0)   -179.9561         0.010975   
     56. D(H  11,C   2,C   1,H   8)     63.2303         0.010975   
     57. D(O   3,C   2,C   1,H   8)    -56.3658         0.010975   
     58. D(H  10,C   2,C   1,H   9)    -63.1379         0.010975   
     59. D(H  11,C   2,C   1,S   0)    -60.3600         0.010975   
     60. D(C   4,O   3,C   2,H  11)     59.1932         0.017392   
     61. D(C   4,O   3,C   2,C   1)   -179.9331         0.017392   
     62. D(C   4,O   3,C   2,H  10)    -59.0768         0.017392   
     63. D(H  13,C   4,O   3,C   2)    -59.4047         0.019112   
     64. D(H  12,C   4,O   3,C   2)     59.5676         0.019112   
     65. D(C   5,C   4,O   3,C   2)   -179.9200         0.019112   
     66. D(H  15,C   5,C   4,H  13)   -179.8146         0.011623   
     67. D(H  15,C   5,C   4,O   3)    -59.0091         0.011623   
     68. D(H  14,C   5,C   4,H  13)    -61.7597         0.011623   
     69. D(H  14,C   5,C   4,H  12)    179.8398         0.011623   
     70. D(H  14,C   5,C   4,O   3)     59.0458         0.011623   
     71. D(O   6,C   5,C   4,H  13)     59.2102         0.011623   
     72. D(H  15,C   5,C   4,H  12)     61.7849         0.011623   
     73. D(O   6,C   5,C   4,H  12)    -59.1902         0.011623   
     74. D(O   6,C   5,C   4,O   3)   -179.9843         0.011623   
     75. D(C   7,O   6,C   5,H  15)     59.1072         0.018419   
     76. D(C   7,O   6,C   5,H  14)    -59.1393         0.018419   
     77. D(C   7,O   6,C   5,C   4)    179.9876         0.018419   
     78. D(H  18,C   7,O   6,C   5)    -61.1583         0.019819   
     79. D(H  17,C   7,O   6,C   5)     61.1199         0.019819   
     80. D(H  16,C   7,O   6,C   5)    179.9899         0.019819   
    -----------------------------------------------------------------

Number of atoms                         .... 19
Number of degrees of freedom            .... 80

         *************************************************************
         *                GEOMETRY OPTIMIZATION CYCLE   1            *
         *************************************************************
---------------------------------
CARTESIAN COORDINATES (ANGSTROEM)
---------------------------------
  S      0.628410   -1.344180    0.647210
  C      0.628410    0.493820    0.647210
  C     -0.371180    1.023470   -0.386200
  O     -0.350890    2.460850   -0.366720
  C     -1.269810    2.997580   -1.314550
  C     -1.208540    4.519150   -1.255800
  O     -2.123990    5.081360   -2.199600
  C     -2.090100    6.500900   -2.168330
  H      1.616080    0.914950    0.420450
  H      0.369010    0.914920    1.626780
  H     -1.388310    0.682920   -0.153370
  H     -0.105880    0.681750   -1.394740
  H     -2.287980    2.658300   -1.089800
  H     -1.016440    2.654840   -2.324810
  H     -0.189060    4.857400   -1.477940
  H     -1.458890    4.860990   -0.244060
  H     -2.804470    6.878430   -2.904930
  H     -1.092940    6.867210   -2.430190
  H     -2.380550    6.870290   -1.180000

----------------------------
CARTESIAN COORDINATES (A.U.)
----------------------------
  NO LB      ZA    FRAG     MASS         X           Y           Z
   0 S    16.0000    0    32.060    1.187523   -2.540132    1.223050
   1 C     6.0000    0    12.011    1.187523    0.933185    1.223050
   2 C     6.0000    0    12.011   -0.701429    1.934078   -0.729812
   3 O     8.0000    0    15.999   -0.663086    4.650333   -0.693000
   4 C     6.0000    0    12.011   -2.399593    5.664605   -2.484139
   5 C     6.0000    0    12.011   -2.283810    8.539956   -2.373118
   6 O     8.0000    0    15.999   -4.013759    9.602379   -4.156642
   7 C     6.0000    0    12.011   -3.949717   12.284921   -4.097550
   8 H     1.0000    0     1.008    3.053949    1.729005    0.794535
   9 H     1.0000    0     1.008    0.697328    1.728948    3.074169
  10 H     1.0000    0     1.008   -2.623526    1.290532   -0.289827
  11 H     1.0000    0     1.008   -0.200084    1.288321   -2.635677
  12 H     1.0000    0     1.008   -4.323656    5.023459   -2.059424
  13 H     1.0000    0     1.008   -1.920793    5.016921   -4.393254
  14 H     1.0000    0     1.008   -0.357272    9.179156   -2.792902
  15 H     1.0000    0     1.008   -2.756903    9.185940   -0.461207
  16 H     1.0000    0     1.008   -5.299680   12.998349   -5.489522
  17 H     1.0000    0     1.008   -2.065357   12.977146   -4.592394
  18 H     1.0000    0     1.008   -4.498588   12.982967   -2.229877

--------------------------------
INTERNAL COORDINATES (ANGSTROEM)
--------------------------------
 S      0   0   0     0.000000000000     0.00000000     0.00000000
 C      1   0   0     1.838000000000     0.00000000     0.00000000
 C      2   1   0     1.532202832102   110.22323629     0.00000000
 O      3   2   1     1.437655180807   109.10294481   180.04388139
 C      4   3   2     1.425087635270   111.00472128   180.06685238
 C      5   4   3     1.523935969882   108.93402041   180.08001551
 O      6   5   4     1.429995533769   109.95989142   180.01572100
 C      7   6   5     1.420288758176   111.29323941   179.98759334
 H      2   1   3     1.097388993657   112.56655493   238.88355488
 H      2   1   3     1.097347235336   112.56576475   121.12099840
 H      3   2   1     1.097605370021   110.74640887    60.45411400
 H      3   2   1     1.097410397253   110.76193583   299.64000459
 H      5   4   3     1.096491509224   110.23627986    59.56763127
 H      5   4   3     1.096490917473   110.24719107   300.59528223
 H      6   5   4     1.096858565404   109.72238930    59.04578167
 H      6   5   4     1.096880821101   109.72744914   300.99086239
 H      8   7   6     1.093358567808   108.34202698   179.98988236
 H      8   7   6     1.094112307444   110.55474243    61.11994726
 H      8   7   6     1.094352029056   110.54328565   298.84165242

---------------------------
INTERNAL COORDINATES (A.U.)
---------------------------
 S      0   0   0     0.000000000000     0.00000000     0.00000000
 C      1   0   0     3.473316634147     0.00000000     0.00000000
 C      2   1   0     2.895443734290   110.22323629     0.00000000
 O      3   2   1     2.716774566737   109.10294481   180.04388139
 C      4   3   2     2.693025347498   111.00472128   180.06685238
 C      5   4   3     2.879821628709   108.93402041   180.08001551
 O      6   5   4     2.702299931554   109.95989142   180.01572100
 C      7   6   5     2.683956784039   111.29323941   179.98759334
 H      2   1   3     2.073764660392   112.56655493   238.88355488
 H      2   1   3     2.073685748601   112.56576475   121.12099840
 H      3   2   1     2.074173552462   110.74640887    60.45411400
 H      3   2   1     2.073805107327   110.76193583   299.64000459
 H      5   4   3     2.072068660603   110.23627986    59.56763127
 H      5   4   3     2.072067542355   110.24719107   300.59528223
 H      6   5   4     2.072762296259   109.72238930    59.04578167
 H      6   5   4     2.072804353432   109.72744914   300.99086239
 H      8   7   6     2.066148259334   108.34202698   179.98988236
 H      8   7   6     2.067572620821   110.55474243    61.11994726
 H      8   7   6     2.068025629018   110.54328565   298.84165242

---------------------
BASIS SET INFORMATION
---------------------
There are 4 groups of distinct atoms

 Group   1 Type S   : 17s11p1d contracted to 5s4p1d pattern {66311/6311/1}
 Group   2 Type C   : 11s5p1d contracted to 4s3p1d pattern {6311/311/1}
 Group   3 Type O   : 11s5p1d contracted to 4s3p1d pattern {6311/311/1}
 Group   4 Type H   : 4s1p contracted to 2s1p pattern {31/1}

Atom   0S    basis set group =>   1
Atom   1C    basis set group =>   2
Atom   2C    basis set group =>   2
Atom   3O    basis set group =>   3
Atom   4C    basis set group =>   2
Atom   5C    basis set group =>   2
Atom   6O    basis set group =>   3
Atom   7C    basis set group =>   2
Atom   8H    basis set group =>   4
Atom   9H    basis set group =>   4
Atom  10H    basis set group =>   4
Atom  11H    basis set group =>   4
Atom  12H    basis set group =>   4
Atom  13H    basis set group =>   4
Atom  14H    basis set group =>   4
Atom  15H    basis set group =>   4
Atom  16H    basis set group =>   4
Atom  17H    basis set group =>   4
Atom  18H    basis set group =>   4
[file orca_main/mainfcts.cpp, line 334]: Error : multiplicity (1) is odd and number of electrons (73) is odd -> impossible

