LAMMPS (31 Mar 2017)
  using 1 OpenMP thread(s) per MPI task
Reading data file ...
  orthogonal box = (0 0 0) to (81.6 70.667 100)
  4 by 3 by 1 MPI processor grid
  reading atoms ...
  11440 atoms
  scanning bonds ...
  1 = max bonds/atom
  scanning angles ...
  6 = max angles/atom
  scanning dihedrals ...
  9 = max dihedrals/atom
  reading bonds ...
  9984 bonds
  reading angles ...
  18176 angles
  reading dihedrals ...
  19200 dihedrals
Finding 1-2 1-3 1-4 neighbors ...
  special bond factors lj:   0          0          0.5       
  special bond factors coul: 0          0          0.5       
  4 = max # of 1-2 neighbors
  6 = max # of 1-3 neighbors
  12 = max # of 1-4 neighbors
  14 = max # of special neighbors
1200 atoms in group gold
256 atoms in group thiol
10240 atoms in group dynamic
Ewald initialization ...
WARNING: Using 12-bit tables for long-range coulomb (../kspace.cpp:321)
  G vector (1/distance) = 0.137558
  estimated absolute RMS force accuracy = 0.0423204
  estimated relative force accuracy = 0.000127447
  KSpace vectors: actual max1d max3d = 725 7 1687
                  kxmax kymax kzmax  = 6 6 7
Neighbor list info ...
  update every 1 steps, delay 0 steps, check yes
  max neighbors/atom: 30000, page size: 300000
  master list distance cutoff = 22
  ghost atom cutoff = 22
  binsize = 11, bins = 8 7 10
  3 neighbor lists, perpetual/occasional/extra = 3 0 0
  (1) pair lj/cut/coul/long, perpetual, skip from (3)
      attributes: half, newton on
      pair build: skip
      stencil: none
      bin: none
  (2) pair morse, perpetual, skip from (3)
      attributes: half, newton on
      pair build: skip
      stencil: none
      bin: none
  (3) neighbor class addition, perpetual
      attributes: half, newton on
      pair build: half/bin/newton
      stencil: half/bin/3d/newton
      bin: standard
Setting up cg style minimization ...
  Unit style    : real
Per MPI rank memory allocation (min/avg/max) = 36.81 | 37.38 | 39.1 Mbytes
Step Temp Press KinEng PotEng TotEng Density 
       0            0     16849590            0     35360759     35360759    0.8777114 
     100            0    4000.0462            0   -2370.5666   -2370.5666    0.8777114 
Loop time of 3.40199 on 12 procs for 100 steps with 11440 atoms

98.9% CPU use with 12 MPI tasks x 1 OpenMP threads

Minimization stats:
  Stopping criterion = max iterations
  Energy initial, next-to-last, final = 
         35360759.3833     -2266.20432355     -2370.56663678
  Force two-norm initial, final = 1.47396e+07 374.956
  Force max component initial, final = 264149 29.4685
  Final line search alpha, max atom move = 0.00224685 0.0662112
  Iterations, force evaluations = 100 155

MPI task timing breakdown:
Section |  min time  |  avg time  |  max time  |%varavg| %total
---------------------------------------------------------------
Pair    | 2.2761     | 2.451      | 2.6776     |   6.0 | 72.05
Bond    | 0.078165   | 0.082646   | 0.086301   |   0.8 |  2.43
Kspace  | 0.5974     | 0.81652    | 0.97518    |   9.7 | 24.00
Neigh   | 0          | 0          | 0          |   0.0 |  0.00
Comm    | 0.027966   | 0.041119   | 0.061842   |   5.1 |  1.21
Output  | 3.6001e-05 | 4.4902e-05 | 0.00013614 |   0.0 |  0.00
Modify  | 0.00027895 | 0.000314   | 0.00034523 |   0.0 |  0.01
Other   |            | 0.01034    |            |       |  0.30

Nlocal:    953.333 ave 973 max 920 min
Histogram: 1 0 2 1 0 0 2 0 3 3
Nghost:    7670.17 ave 7725 max 7630 min
Histogram: 1 2 2 1 1 1 2 1 0 1
Neighs:    1.32145e+06 ave 1.36545e+06 max 1.24944e+06 min
Histogram: 1 0 2 1 1 0 1 3 0 3

Total # of neighbors = 15857432
Ave neighs/atom = 1386.14
Ave special neighs/atom = 8.27972
Neighbor list builds = 0
Dangerous builds = 0
Ewald initialization ...
WARNING: Using 12-bit tables for long-range coulomb (../kspace.cpp:321)
  G vector (1/distance) = 0.137558
  estimated absolute RMS force accuracy = 0.0423204
  estimated relative force accuracy = 0.000127447
  KSpace vectors: actual max1d max3d = 725 7 1687
                  kxmax kymax kzmax  = 6 6 7
Setting up Verlet run ...
  Unit style    : real
  Current step  : 100
  Time step     : 1
Per MPI rank memory allocation (min/avg/max) = 35.7 | 36.27 | 37.99 Mbytes
Step Temp Press KinEng PotEng TotEng Density 
     100            0    4000.0462            0   -2370.5666   -2370.5666    0.8777114 
     200    16.381836    3613.7147    558.57941   -3546.8606   -2988.2812    0.8777114 
     300    16.158369    3280.5083    550.95977   -4734.4202   -4183.4604    0.8777114 
     400    9.4911605    3141.4483    323.62471   -5336.9434   -5013.3187    0.8777114 
     500     6.072413    2965.5941    207.05402   -5706.6874   -5499.6333    0.8777114 
     600    4.1919665    2855.2655    142.93552   -5922.8589   -5779.9234    0.8777114 
     700    3.3610749    2802.9059    114.60421   -6056.5251   -5941.9209    0.8777114 
     800    3.1916122    2765.2292    108.82595   -6168.5651   -6059.7391    0.8777114 
     900    3.2465977    2729.3049    110.70082   -6264.8659   -6154.1651    0.8777114 
    1000    3.3533716    2718.5785    114.34154   -6353.9417   -6239.6002    0.8777114 
    1100    3.4160218    2668.2203    116.47775   -6428.4762   -6311.9984    0.8777114 
    1200    3.4655816    2655.2245    118.16762   -6480.3922   -6362.2246    0.8777114 
    1300    3.5592642    2653.9789    121.36196    -6519.706    -6398.344    0.8777114 
    1400    3.8019289     2604.297    129.63622    -6557.724   -6428.0878    0.8777114 
    1500     3.871156    2615.9793    131.99669   -6582.6743   -6450.6777    0.8777114 
    1600    4.0732387    2613.4522     138.8872   -6606.8603   -6467.9731    0.8777114 
    1700    4.2829804    2614.9134    146.03887    -6622.487   -6476.4481    0.8777114 
    1800    4.5027861    2581.9366    153.53369   -6634.2798   -6480.7461    0.8777114 
    1900    4.7990947    2588.5955    163.63706   -6650.2952   -6486.6582    0.8777114 
    2000     4.927014    2593.3956    167.99879   -6654.8828    -6486.884    0.8777114 
    2100    5.2072032    2583.3174    177.55254    -6658.272   -6480.7194    0.8777114 
    2200    5.4337851    2595.8024    185.27841   -6663.4092   -6478.1308    0.8777114 
    2300    5.7732035    2581.5304    196.85173   -6668.8921   -6472.0404    0.8777114 
    2400    6.0003744    2587.0868    204.59768   -6668.2635   -6463.6658    0.8777114 
    2500    6.2454135    2586.3383     212.9529   -6672.9858   -6460.0329    0.8777114 
    2600    6.5576308    2553.4892    223.59873   -6680.3091   -6456.7104    0.8777114 
    2700    6.7977911     2577.294    231.78759   -6686.7365    -6454.949    0.8777114 
    2800     7.066145    2542.8557    240.93778   -6699.9119   -6458.9741    0.8777114 
    2900     7.281798    2550.6258    248.29101   -6707.3377   -6459.0467    0.8777114 
    3000    7.4566052    2581.0653    254.25149   -6713.0507   -6458.7992    0.8777114 
    3100    7.7439272    2549.8068    264.04845    -6715.654   -6451.6056    0.8777114 
    3200    7.9609409    2531.3422    271.44807   -6717.6872   -6446.2392    0.8777114 
    3300    8.2064373    2500.7546    279.81888   -6723.1946   -6443.3757    0.8777114 
    3400    8.3059849     2491.058    283.21321   -6731.9813   -6448.7681    0.8777114 
    3500    8.6086009    2503.6998    293.53165   -6722.7431   -6429.2114    0.8777114 
    3600    8.8087802    2503.2178    300.35726   -6729.1424   -6428.7852    0.8777114 
    3700    9.0632461    2512.3641    309.03391   -6728.5265   -6419.4926    0.8777114 
    3800    9.2471053    2492.4096    315.30305   -6736.1468   -6420.8438    0.8777114 
    3900     9.295769    2517.3742    316.96236   -6733.6066   -6416.6443    0.8777114 
    4000    9.5486548    2481.4441    325.58512   -6737.5262    -6411.941    0.8777114 
    4100    9.8254616    2477.6851    335.02354   -6737.7542   -6402.7307    0.8777114 
    4200    9.9512342     2491.794    339.31207    -6743.668    -6404.356    0.8777114 
    4300    10.184905    2463.0912    347.27964   -6746.9998   -6399.7202    0.8777114 
    4400    10.453334    2473.5896    356.43242   -6750.8329   -6394.4005    0.8777114 
    4500     10.55178    2487.3607    359.78916   -6757.9484   -6398.1592    0.8777114 
    4600    10.788852    2479.7515    367.87272   -6759.1245   -6391.2518    0.8777114 
    4700      10.8686    2454.9692    370.59193   -6768.9773   -6398.3854    0.8777114 
    4800    11.039893    2460.8029    376.43259   -6769.2927   -6392.8601    0.8777114 
    4900    11.159194     2480.631    380.50048   -6774.3961   -6393.8956    0.8777114 
    5000    11.333136    2468.8733    386.43144    -6775.646   -6389.2146    0.8777114 
    5100    11.550543    2471.1295     393.8445   -6789.3956   -6395.5511    0.8777114 
    5200    11.626491    2459.6107    396.43412   -6794.3931    -6397.959    0.8777114 
    5300    11.785852    2495.2303    401.86793   -6804.0938   -6402.2259    0.8777114 
    5400    11.916529    2417.9665    406.32367   -6810.9832   -6404.6595    0.8777114 
    5500    12.180077    2447.7546    415.31002   -6821.1444   -6405.8344    0.8777114 
    5600    12.413672    2441.3909    423.27502   -6822.4942   -6399.2192    0.8777114 
    5700    12.305527    2462.7945    419.58754   -6832.9421   -6413.3546    0.8777114 
    5800    12.521518    2406.4137    426.95229   -6840.8203    -6413.868    0.8777114 
    5900      12.7799    2407.0747    435.76248   -6846.0694   -6410.3069    0.8777114 
    6000    12.926497    2406.6488    440.76105   -6851.4636   -6410.7025    0.8777114 
    6100     12.83581    2427.3593    437.66885   -6847.8087   -6410.1398    0.8777114 
    6200    13.007764    2406.6028    443.53207   -6858.6031   -6415.0711    0.8777114 
    6300    13.228358     2418.816    451.05374    -6867.192   -6416.1383    0.8777114 
    6400    13.249359     2404.131    451.76982   -6862.4413   -6410.6715    0.8777114 
    6500     13.32357    2351.6752    454.30024   -6872.3331   -6418.0329    0.8777114 
    6600    13.512241    2425.0936    460.73345   -6875.7797   -6415.0462    0.8777114 
    6700    13.746294     2399.523    468.71408   -6865.3957   -6396.6817    0.8777114 
    6800    13.956138    2372.3688    475.86922   -6881.8143   -6405.9451    0.8777114 
    6900    14.057675     2363.616    479.33138   -6881.3851   -6402.0537    0.8777114 
    7000    14.134804    2333.5279     481.9613   -6886.3765   -6404.4152    0.8777114 
    7100    14.195411    2357.7964    484.02782   -6888.7903   -6404.7625    0.8777114 
    7200    14.413795    2379.3428    491.47419   -6896.0857   -6404.6115    0.8777114 
    7300    14.484728    2385.4471    493.89282   -6901.5018    -6407.609    0.8777114 
    7400    14.608571    2347.2789    498.11555   -6910.4773   -6412.3617    0.8777114 
    7500    14.607144    2362.5061     498.0669   -6909.3186   -6411.2517    0.8777114 
    7600    14.785293    2351.9071    504.14134   -6909.4447   -6405.3034    0.8777114 
    7700    14.770947    2350.2868    503.65216   -6907.5429   -6403.8907    0.8777114 
    7800    15.023294    2357.6764    512.25657   -6916.7952   -6404.5386    0.8777114 
    7900     15.21087    2315.9623    518.65242   -6922.4336   -6403.7812    0.8777114 
    8000     15.22316    2350.6803    519.07149   -6911.2621   -6392.1907    0.8777114 
    8100    15.306321    2304.2728    521.90708   -6918.3182   -6396.4111    0.8777114 
    8200    15.343472    2294.2519    523.17384   -6922.8422   -6399.6683    0.8777114 
    8300     15.47798    2347.7555    527.76019   -6925.7872    -6398.027    0.8777114 
    8400     15.43952    2298.3996    526.44882   -6914.2422   -6387.7934    0.8777114 
    8500    15.549795    2349.4192     530.2089   -6921.2651   -6391.0562    0.8777114 
    8600    15.804085    2324.1106    538.87957   -6926.9736    -6388.094    0.8777114 
    8700    16.084059    2326.0743    548.42598   -6925.9884   -6377.5624    0.8777114 
    8800    16.057523     2282.284    547.52115   -6933.1817   -6385.6606    0.8777114 
    8900    16.125357    2303.4807    549.83414   -6918.0606   -6368.2264    0.8777114 
    9000    16.316903    2323.8082    556.36538   -6926.0214    -6369.656    0.8777114 
    9100    16.326743    2269.4794    556.70088   -6927.6625   -6370.9616    0.8777114 
    9200    16.321673    2325.5737    556.52803   -6939.4827   -6382.9547    0.8777114 
    9300    16.521622    2321.4154    563.34579   -6936.8714   -6373.5256    0.8777114 
    9400    16.677686    2308.3869    568.66718   -6943.2039   -6374.5368    0.8777114 
    9500    16.728105    2264.9242    570.38633   -6938.7854    -6368.399    0.8777114 
    9600    16.616838    2266.6418    566.59239   -6944.2135   -6377.6211    0.8777114 
    9700    16.758659    2305.7958    571.42815   -6943.9629   -6372.5348    0.8777114 
    9800    16.967735    2282.4133    578.55711   -6950.7357   -6372.1786    0.8777114 
    9900    17.121742    2321.1287    583.80836   -6949.6681   -6365.8598    0.8777114 
   10000    17.105013    2269.9448    583.23793   -6946.9442   -6363.7063    0.8777114 
   10100    16.993723    2234.3826    579.44322   -6942.7657   -6363.3224    0.8777114 
   10200    17.519199    2278.0501    597.36066   -6964.2307   -6366.8701    0.8777114 
   10300    17.256027    2258.8489    588.38714   -6959.9476   -6371.5605    0.8777114 
   10400    17.462541    2258.7578    595.42874   -6961.0691   -6365.6404    0.8777114 
   10500    17.532237    2216.5138    597.80522   -6963.3742    -6365.569    0.8777114 
   10600    17.635088    2225.9706    601.31217   -6971.1318   -6369.8196    0.8777114 
   10700    17.552155    2233.4408    598.48436   -6971.7585   -6373.2742    0.8777114 
   10800    17.903091    2222.1034    610.45038   -6979.9416   -6369.4912    0.8777114 
   10900    18.099926    2233.8072    617.16198   -6984.3982   -6367.2362    0.8777114 
   11000    18.022241    2236.0756     614.5131   -6984.5484   -6370.0353    0.8777114 
   11100    17.976888    2259.3895    612.96669   -6988.3348   -6375.3682    0.8777114 
   11200    18.148673    2210.0008    618.82413   -6992.4897   -6373.6655    0.8777114 
   11300      18.3805    2229.6211    626.72884   -6984.8607   -6358.1319    0.8777114 
   11400    18.094718    2208.4336    616.98439   -6993.5194    -6376.535    0.8777114 
   11500     18.43242    2261.6845    628.49917   -7003.0208   -6374.5216    0.8777114 
   11600    18.600878    2224.7635    634.24319   -6996.4205   -6362.1773    0.8777114 
   11700    18.602737    2249.1181    634.30658   -7010.4604   -6376.1538    0.8777114 
   11800    18.544797    2247.7517    632.33095   -7017.2422   -6384.9112    0.8777114 
   11900    18.747607     2274.055    639.24628   -7024.7889   -6385.5427    0.8777114 
   12000    18.613038    2221.5325    634.65782   -7022.5802   -6387.9224    0.8777114 
   12100    18.839445    2245.2341    642.37772   -7022.6709   -6380.2931    0.8777114 
   12200    18.929814    2209.1038    645.45907   -7020.6295   -6375.1705    0.8777114 
   12300     19.35567    2264.9666    659.97968    -7032.632   -6372.6523    0.8777114 
   12400    19.343339    2218.2401    659.55925   -7028.9446   -6369.3854    0.8777114 
   12500    19.335295    2237.1314    659.28495   -7044.8438   -6385.5588    0.8777114 
   12600    19.224342    2233.2799    655.50173   -7046.4236   -6390.9219    0.8777114 
   12700    19.598146    2177.1573    668.24752   -7056.1916   -6387.9441    0.8777114 
   12800    19.457562    2180.8651    663.45394   -7044.5987   -6381.1447    0.8777114 
   12900    19.624908    2199.4971    669.16004   -7046.2205   -6377.0605    0.8777114 
   13000    19.755663     2192.631    673.61846    -7053.749   -6380.1305    0.8777114 
   13100    19.704849    2181.7097    671.88583    -7057.226   -6385.3402    0.8777114 
   13200    19.835911    2154.5374     676.3547   -7054.1467    -6377.792    0.8777114 
   13300    19.990107    2168.3469     681.6124   -7055.6077   -6373.9953    0.8777114 
   13400    20.249896    2148.6414    690.47055   -7076.1836   -6385.7131    0.8777114 
   13500    19.943904    2161.2237    680.03698   -7067.1494   -6387.1124    0.8777114 
   13600      20.1479    2173.0012    686.99275   -7075.5172   -6388.5244    0.8777114 
   13700    20.251549    2208.7123    690.52691   -7084.2117   -6393.6848    0.8777114 
   13800    20.275516    2178.9932    691.34413    -7092.649   -6401.3049    0.8777114 
   13900    20.477372     2194.742    698.22691   -7088.6183   -6390.3914    0.8777114 
   14000    20.357799    2154.4948    694.14976   -7085.0039   -6390.8541    0.8777114 
   14100     20.73113    2160.5954    706.87943   -7090.4046   -6383.5252    0.8777114 
   14200    20.926703    2172.8044    713.54796   -7096.0375   -6382.4895    0.8777114 
   14300    20.618673    2149.2326    703.04491   -7077.5118   -6374.4669    0.8777114 
   14400    20.361784    2096.5826    694.28563   -7097.0417   -6402.7561    0.8777114 
   14500    20.660554    2128.9452    704.47297   -7092.7026   -6388.2296    0.8777114 
   14600    20.895952    2100.0729    712.49942   -7092.0296   -6379.5302    0.8777114 
   14700     20.64581    2129.7399    703.97024   -7093.1887   -6389.2185    0.8777114 
   14800    20.874696    2111.2406    711.77467   -7103.6842   -6391.9096    0.8777114 
   14900    21.219846    2128.6773    723.54339   -7105.6094    -6382.066    0.8777114 
   15000    21.555795    2200.3033    734.99841   -7106.1266   -6371.1282    0.8777114 
   15100    21.489465    2077.0972    732.73673   -7104.1559   -6371.4191    0.8777114 
   15200    21.280242    2084.5091    725.60275   -7105.0798   -6379.4771    0.8777114 
   15300    21.576943    2120.1326    735.71952   -7108.5047   -6372.7851    0.8777114 
   15400    21.385256    2160.9638    729.18346   -7114.4437   -6385.2602    0.8777114 
   15500    21.467627    2066.1356    731.99212   -7120.7076   -6388.7155    0.8777114 
   15600    21.574331    2125.3277    735.63044    -7108.463   -6372.8326    0.8777114 
   15700    21.558051    2134.9106    735.07536   -7115.3296   -6380.2543    0.8777114 
   15800    21.706765    2079.0364    740.14612   -7117.6824   -6377.5363    0.8777114 
   15900    21.491722    2063.4352    732.81369   -7099.4262   -6366.6125    0.8777114 
   16000     21.64579    2160.3053    738.06704   -7114.5494   -6376.4824    0.8777114 
   16100    21.954011    2115.5759     748.5766   -7115.7889   -6367.2123    0.8777114 
   16200    22.004687    2026.1614    750.30451   -7110.8725    -6360.568    0.8777114 
   16300    22.103238    2002.0286    753.66487   -7121.0345   -6367.3696    0.8777114 
   16400    22.006663    2078.8268     750.3719   -7129.1439    -6378.772    0.8777114 
   16500    21.922276    2117.5986    747.49451   -7135.2295   -6387.7349    0.8777114 
   16600    22.256202    2048.7509    758.88055   -7118.5049   -6359.6243    0.8777114 
   16700    22.489788    2059.4786    766.84523   -7139.3722    -6372.527    0.8777114 
   16800    22.308462     2109.915    760.66246   -7142.5518   -6381.8894    0.8777114 
   16900    22.578953    2091.0896    769.88555   -7121.5802   -6351.6946    0.8777114 
   17000    22.498362    2074.7196     767.1376   -7138.5184   -6371.3808    0.8777114 
   17100    22.855505    2122.2205    779.31526   -7140.2634   -6360.9481    0.8777114 
   17200    22.970465    2093.2977    783.23511   -7131.7404   -6348.5053    0.8777114 
   17300    22.656535    2041.2052    772.53089   -7149.3549    -6376.824    0.8777114 
   17400    22.782545     2124.861    776.82753   -7140.7879   -6363.9604    0.8777114 
   17500    22.872386    2063.2742    779.89087   -7153.1067   -6373.2158    0.8777114 
   17600    22.626172    2063.7014    771.49558   -7150.1504   -6378.6549    0.8777114 
   17700    22.670166     2014.574    772.99568   -7147.4548   -6374.4591    0.8777114 
   17800    23.123964    2063.7492    788.46906   -7143.1341   -6354.6651    0.8777114 
   17900    23.153113    2013.7198    789.46294   -7143.8324   -6354.3694    0.8777114 
   18000    23.178345    1996.8175    790.32329   -7143.7703   -6353.4471    0.8777114 
   18100    23.408264    2027.8852    798.16296   -7153.1311   -6354.9681    0.8777114 
   18200    23.095307    2005.3824     787.4919    -7144.593   -6357.1011    0.8777114 
   18300     23.28763    2016.5499    794.04964   -7156.8802   -6362.8306    0.8777114 
   18400    23.363947    2001.4984    796.65186   -7153.6006   -6356.9487    0.8777114 
   18500     23.62773    1992.0018     805.6462   -7143.6266   -6337.9804    0.8777114 
   18600    23.461561    2112.1418    799.98026   -7143.4331   -6343.4529    0.8777114 
   18700    23.614058    2063.7149    805.18001   -7162.9292   -6357.7492    0.8777114 
   18800    23.395964    2083.6113    797.74355   -7165.4942   -6367.7506    0.8777114 
   18900    23.767191    2051.3962    810.40146   -7163.2553   -6352.8539    0.8777114 
   19000    23.591367    2017.6714    804.40632   -7166.3585   -6361.9522    0.8777114 
   19100    23.900195    2056.7748    814.93658   -7163.9422   -6349.0056    0.8777114 
   19200    24.026343     2001.295    819.23791   -7159.3854   -6340.1475    0.8777114 
   19300    23.969299     2061.179    817.29283   -7152.8651   -6335.5723    0.8777114 
   19400    23.715115    2083.0246    808.62581   -7160.9488    -6352.323    0.8777114 
   19500    24.063516    2051.8885    820.50542   -7170.7146   -6350.2092    0.8777114 
   19600    24.267218     2021.405    827.45114   -7163.0119   -6335.5607    0.8777114 
   19700     24.21171    2036.2432    825.55844   -7158.9252   -6333.3668    0.8777114 
   19800    23.858855    2005.4457    813.52696    -7158.537     -6345.01    0.8777114 
   19900    24.367096    2025.1514    830.85673   -7176.6917   -6345.8349    0.8777114 
   20000    24.488509    2028.2375    834.99659   -7160.8086    -6325.812    0.8777114 
   20100    24.292125    1993.6365    828.30039   -7173.8152   -6345.5148    0.8777114 
   20200    24.836577    2001.2262    846.86484   -7170.9951   -6324.1303    0.8777114 
   20300     24.51526     2033.494    835.90874   -7178.0603   -6342.1515    0.8777114 
   20400     24.59834    1993.2876    838.74156   -7175.1238   -6336.3823    0.8777114 
   20500    24.535708    1997.6554    836.60596   -7179.9501   -6343.3441    0.8777114 
   20600    24.720627    2062.8606    842.91123    -7174.773   -6331.8618    0.8777114 
   20700    24.925275    1985.8824    849.88924    -7185.564   -6335.6747    0.8777114 
   20800    25.152886    1921.7609    857.65018   -7186.8259   -6329.1757    0.8777114 
   20900    25.030413    1969.3217    853.47417   -7190.3712    -6336.897    0.8777114 
   21000    24.877054    2024.9387    848.24502   -7182.8736   -6334.6286    0.8777114 
   21100    25.165039    1995.6229    858.06456   -7185.2993   -6327.2348    0.8777114 
   21200    25.084527    1950.7975    855.31933   -7192.0767   -6336.7574    0.8777114 
   21300    25.216453    2030.5508    859.81766   -7199.0103   -6339.1927    0.8777114 
   21400    25.524345    1940.0798    870.31602    -7180.022    -6309.706    0.8777114 
   21500    25.414406    1964.6137    866.56734   -7191.0721   -6324.5047    0.8777114 
   21600    25.472322    1999.3898    868.54216   -7181.8873   -6313.3452    0.8777114 
   21700    25.413491    1957.4342    866.53614   -7208.2332   -6341.6971    0.8777114 
   21800    25.759163    1903.6839    878.32269   -7201.5122   -6323.1895    0.8777114 
   21900    25.532166    1907.2332    870.58267   -7207.2203   -6336.6376    0.8777114 
   22000    25.691981    1889.2863    876.03198   -7220.7699   -6344.7379    0.8777114 
   22100    25.367107    1956.1517    864.95457   -7212.7279   -6347.7734    0.8777114 
   22200    25.618467     1955.359    873.52534   -7208.1476   -6334.6223    0.8777114 
   22300    25.598438    1977.5863    872.84239   -7215.5466   -6342.7042    0.8777114 
   22400    25.693522    1964.6235     876.0845   -7199.8545     -6323.77    0.8777114 
   22500    26.068259    1957.3308     888.8621   -7201.7218   -6312.8597    0.8777114 
   22600    25.563654    1918.8541    871.65633   -7205.6602   -6334.0039    0.8777114 
   22700    25.567645    1943.5727    871.79241   -7222.8625   -6351.0701    0.8777114 
   22800    25.853729    1918.5785    881.54715   -7232.8949   -6351.3478    0.8777114 
   22900    25.994462     1971.703    886.34579   -7215.7047   -6329.3589    0.8777114 
   23000    26.141233    1944.3877    891.35032   -7234.4649   -6343.1146    0.8777114 
   23100    26.391508    1952.0031    899.88408   -7234.1026   -6334.2185    0.8777114 
   23200    26.474902    1878.2082    902.72759   -7220.3736    -6317.646    0.8777114 
   23300    26.426942    1936.6568    901.09229   -7223.4015   -6322.3092    0.8777114 
   23400    26.450019    1929.1215    901.87915    -7231.652   -6329.7729    0.8777114 
   23500    26.315574    1888.1425    897.29493   -7233.5172   -6336.2223    0.8777114 
   23600    26.271517    1915.2539     895.7927   -7239.5693   -6343.7766    0.8777114 
   23700    26.683399    1859.7268    909.83682   -7240.3924   -6330.5556    0.8777114 
   23800    26.543833    1923.2216    905.07799    -7242.717    -6337.639    0.8777114 
   23900    26.882745     1960.034    916.63402   -7233.0088   -6316.3748    0.8777114 
   24000    26.929526    1930.9842    918.22913   -7233.2349   -6315.0058    0.8777114 
   24100    26.835956    1879.1629    915.03864   -7252.4188   -6337.3801    0.8777114 
   24200    26.334014    1896.1531    897.92369   -7247.5011   -6349.5774    0.8777114 
   24300    26.834787    1888.9623    914.99878   -7239.9003   -6324.9016    0.8777114 
   24400    26.976022    1871.4248    919.81452   -7248.9877   -6329.1732    0.8777114 
   24500    26.717277    1886.0698    910.99197   -7247.9494   -6336.9574    0.8777114 
   24600    27.331045    1870.1855    931.91993   -7254.2724   -6322.3525    0.8777114 
   24700    26.966634    1907.4394    919.49443   -7245.8064    -6326.312    0.8777114 
   24800    26.925711    1850.8696    918.09907    -7256.835   -6338.7359    0.8777114 
   24900    27.344099    1869.5777    932.36504   -7262.7838   -6330.4188    0.8777114 
   25000    27.089551    1837.1158    923.68559   -7242.7649   -6319.0794    0.8777114 
   25100    27.352378     1838.031    932.64734   -7260.5838   -6327.9364    0.8777114 
   25200    27.291874    1906.9096    930.58428   -7269.2386   -6338.6544    0.8777114 
   25300    27.460081    1884.4362    936.31973    -7264.824   -6328.5043    0.8777114 
   25400    27.009513    1920.0296     920.9565   -7252.4106   -6331.4541    0.8777114 
   25500    27.652337    1835.3975    942.87519   -7260.5707   -6317.6955    0.8777114 
   25600    27.788799    1820.0622     947.5282   -7268.8066   -6321.2784    0.8777114 
   25700    27.649899     1906.818    942.79206    -7263.233   -6320.4409    0.8777114 
   25800    27.432822    1890.1291    935.39026   -7252.8383    -6317.448    0.8777114 
   25900    27.699451    1914.0709    944.48164   -7264.0488   -6319.5671    0.8777114 
   26000    28.159778    1917.1504    960.17763   -7245.8424   -6285.6648    0.8777114 
   26100    27.739733    1835.4227    945.85517   -7267.8921   -6322.0369    0.8777114 
   26200    27.766247    1870.4602    946.75921   -7269.8246   -6323.0654    0.8777114 
   26300    28.294779    1880.2541    964.78084   -7257.1828    -6292.402    0.8777114 
   26400    27.860281    1859.8133    949.96553   -7248.6511   -6298.6856    0.8777114 
   26500    27.999983    1819.2098    954.72904   -7267.5811   -6312.8521    0.8777114 
   26600    27.937262    1839.8573    952.59041   -7285.3624    -6332.772    0.8777114 
   26700    28.353315    1831.5624    966.77677   -7278.8018    -6312.025    0.8777114 
   26800    27.970772    1817.6831      953.733   -7286.5691   -6332.8361    0.8777114 
   26900    28.154008    1864.0171    959.98089   -7274.1223   -6314.1414    0.8777114 
   27000    28.344398     1832.178    966.47271   -7275.6323   -6309.1596    0.8777114 
   27100      27.9398    1791.0982    952.67694   -7285.5228   -6332.8458    0.8777114 
   27200    28.433167    1773.8777    969.49953   -7261.6342   -6292.1347    0.8777114 
   27300    28.746759    1778.4413    980.19223   -7267.3001   -6287.1078    0.8777114 
   27400    28.488302    1836.7819    971.37948   -7284.9228   -6313.5433    0.8777114 
   27500    29.023867    1811.4045    989.64091    -7266.799    -6277.158    0.8777114 
   27600    28.782552    1872.7461    981.41266   -7265.6151   -6284.2024    0.8777114 
   27700    28.207291    1811.8984    961.79772   -7278.7238   -6316.9261    0.8777114 
   27800    28.507405    1814.6225    972.03084   -7275.2952   -6303.2643    0.8777114 
   27900    28.526803    1781.2427    972.69228   -7295.8877   -6323.1955    0.8777114 
   28000    29.053956    1821.8191    990.66687   -7295.7681   -6305.1012    0.8777114 
   28100    29.264585    1842.4412    997.84879   -7295.6578    -6297.809    0.8777114 
   28200    28.361833     1843.456    967.06719    -7288.192   -6321.1248    0.8777114 
   28300    28.775169    1855.8503    981.16094   -7291.2971   -6310.1361    0.8777114 
   28400    28.785671    1769.9692    981.51903   -7309.8681    -6328.349    0.8777114 
   28500    29.397299    1802.5018     1002.374   -7320.7479   -6318.3739    0.8777114 
   28600    28.857968    1799.9213    983.98416   -7289.3397   -6305.3555    0.8777114 
   28700    29.328449    1832.1115    1000.0264   -7316.1342   -6316.1078    0.8777114 
   28800     29.15187    1758.8175    994.00548   -7300.1751   -6306.1696    0.8777114 
   28900    29.308341    1785.6576    999.34074   -7314.5964   -6315.2557    0.8777114 
   29000    29.358178    1821.0742    1001.0401   -7288.1724   -6287.1323    0.8777114 
   29100     29.42228     1875.029    1003.2258   -7312.4397    -6309.214    0.8777114 
   29200    29.946128    1794.7035    1021.0877   -7296.7803   -6275.6927    0.8777114 
   29300    29.455111    1781.8294    1004.3452   -7313.3736   -6309.0284    0.8777114 
   29400    29.661487    1818.0441    1011.3822   -7306.4659   -6295.0837    0.8777114 
   29500    29.885927    1769.5702     1019.035   -7318.1809   -6299.1459    0.8777114 
   29600    29.605579    1809.0289    1009.4758   -7313.1577   -6303.6819    0.8777114 
   29700    29.427748    1857.3483    1003.4122   -7305.0107   -6301.5985    0.8777114 
   29800    29.505658    1719.8956    1006.0688    -7307.368   -6301.2992    0.8777114 
   29900    29.989668    1796.4187    1022.5723    -7318.656   -6296.0837    0.8777114 
   30000    29.565715    1770.3439    1008.1166   -7293.8694   -6285.7528    0.8777114 
   30100    29.645818    1755.0902    1010.8479   -7307.6497   -6296.8019    0.8777114 
   30200     29.99619    1774.1493    1022.7947   -7309.1723   -6286.3776    0.8777114 
   30300    29.629499    1769.7691    1010.2914   -7312.6311   -6302.3397    0.8777114 
   30400    30.132527    1834.5464    1027.4434   -7332.4225    -6304.979    0.8777114 
   30500    30.062053    1794.4254    1025.0404     -7304.67   -6279.6295    0.8777114 
   30600    30.259769    1789.5583    1031.7821   -7315.7899   -6284.0078    0.8777114 
   30700    30.089575    1778.1582    1025.9789   -7314.9172   -6288.9383    0.8777114 
   30800    30.118536    1783.1566    1026.9664   -7338.6142   -6311.6478    0.8777114 
   30900    30.285354    1788.5393    1032.6544   -7334.8398   -6302.1853    0.8777114 
   31000     30.10388    1759.1472    1026.4666   -7346.6601   -6320.1934    0.8777114 
   31100    30.154252     1744.299    1028.1842   -7313.1485   -6284.9643    0.8777114 
   31200    30.695089    1797.2114    1046.6254   -7306.3644    -6259.739    0.8777114 
   31300    30.488354    1753.9473    1039.5762   -7319.7417   -6280.1654    0.8777114 
   31400    30.459009     1786.127    1038.5756    -7306.209   -6267.6334    0.8777114 
   31500    30.386524    1719.1193    1036.1041   -7312.0204   -6275.9163    0.8777114 
   31600    30.950444    1753.4091    1055.3323    -7313.914   -6258.5817    0.8777114 
   31700    30.768445    1728.5213    1049.1266   -7343.8397   -6294.7131    0.8777114 
   31800    30.884902    1739.9897    1053.0975   -7320.9019   -6267.8044    0.8777114 
   31900    30.660733    1708.7311    1045.4539   -7324.2214   -6278.7675    0.8777114 
   32000    30.614391    1812.7364    1043.8738   -7328.8105   -6284.9367    0.8777114 
   32100    31.036007    1744.0878    1058.2498   -7338.9243   -6280.6745    0.8777114 
   32200    30.330191    1760.8144    1034.1833   -7334.1264   -6299.9431    0.8777114 
   32300    30.728502    1766.2953    1047.7647   -7320.9513   -6273.1867    0.8777114 
   32400    31.355871    1715.6396    1069.1564    -7345.975   -6276.8186    0.8777114 
   32500    30.548709    1747.9537    1041.6342   -7342.5103   -6300.8761    0.8777114 
   32600     30.94642    1697.3665    1055.1951   -7329.2135   -6274.0183    0.8777114 
   32700    30.980568    1732.2696    1056.3595   -7322.4852   -6266.1257    0.8777114 
   32800     31.23428    1731.7069    1065.0104   -7321.0709   -6256.0605    0.8777114 
   32900    31.223378    1754.2815    1064.6387   -7346.1451   -6281.5064    0.8777114 
   33000    31.625465    1755.2047    1078.3489   -7328.7323   -6250.3834    0.8777114 
   33100    31.620634    1745.0904    1078.1841   -7331.2907   -6253.1066    0.8777114 
   33200    31.442082    1658.3524    1072.0959   -7335.0845   -6262.9886    0.8777114 
   33300    31.256587    1728.8517    1065.7711   -7343.1288   -6277.3577    0.8777114 
   33400    31.294306     1742.254    1067.0572   -7316.6501    -6249.593    0.8777114 
   33500    31.123155     1761.152    1061.2213   -7346.9295   -6285.7082    0.8777114 
   33600    31.424373    1774.8947    1071.4921   -7351.8295   -6280.3374    0.8777114 
   33700    31.870288    1669.7623    1086.6967   -7363.3633   -6276.6666    0.8777114 
   33800    32.044555    1754.0516    1092.6388   -7338.1241   -6245.4854    0.8777114 
   33900    31.545936    1763.5111    1075.6371   -7337.5701    -6261.933    0.8777114 
   34000    31.462004    1663.1444    1072.7753   -7350.9884   -6278.2131    0.8777114 
   34100    31.367689    1687.0075    1069.5593   -7344.4061   -6274.8468    0.8777114 
   34200    31.358761    1652.3368    1069.2549   -7362.2673   -6293.0124    0.8777114 
   34300    32.021486    1699.5666    1091.8522   -7372.1194   -6280.2672    0.8777114 
   34400    31.832217    1682.9942    1085.3986   -7374.0793   -6288.6808    0.8777114 
   34500    31.977063    1676.8074    1090.3375   -7348.1902   -6257.8528    0.8777114 
   34600     31.88106    1645.7529     1087.064   -7345.1751    -6258.111    0.8777114 
   34700    32.418126    1650.4179    1105.3766   -7357.3352   -6251.9586    0.8777114 
   34800    32.331113    1597.3417    1102.4097   -7353.5787    -6251.169    0.8777114 
   34900    32.520081    1698.2447     1108.853     -7354.52    -6245.667    0.8777114 
   35000    32.657992    1680.0712    1113.5554   -7343.1419   -6229.5865    0.8777114 
   35100    32.675287    1667.5932    1114.1452   -7359.0001   -6244.8549    0.8777114 
   35200    32.638222    1652.1215    1112.8813   -7357.0618   -6244.1804    0.8777114 
   35300    32.306028    1607.5619    1101.5543    -7371.572   -6270.0177    0.8777114 
   35400    32.235044    1637.1761     1099.134   -7337.5646   -6238.4307    0.8777114 
   35500    32.660467     1596.655    1113.6398   -7360.6678    -6247.028    0.8777114 
   35600    32.500207    1659.3074    1108.1753    -7370.568   -6262.3927    0.8777114 
   35700     32.54606    1668.9556    1109.7388   -7362.1262   -6252.3874    0.8777114 
   35800    32.784031    1657.3221     1117.853   -7366.3415   -6248.4885    0.8777114 
   35900    32.464412     1643.646    1106.9548   -7370.9475   -6263.9927    0.8777114 
   36000    32.552072    1674.3011    1109.9438   -7357.0776   -6247.1338    0.8777114 
   36100    32.647226    1687.5394    1113.1883   -7358.9662   -6245.7779    0.8777114 
   36200    32.592922     1696.458    1111.3367   -7347.4258   -6236.0891    0.8777114 
   36300    32.787788     1733.072    1117.9812   -7359.6175   -6241.6363    0.8777114 
   36400    32.872483    1687.7329     1120.869   -7361.9988   -6241.1297    0.8777114 
   36500    32.754241    1667.2258    1116.8373   -7350.4959   -6233.6586    0.8777114 
   36600    33.209128     1706.382    1132.3478   -7369.7069   -6237.3591    0.8777114 
   36700    32.990449    1622.0993    1124.8914   -7371.0484   -6246.1571    0.8777114 
   36800    32.984216    1649.2343    1124.6788   -7360.3117   -6235.6328    0.8777114 
   36900    33.573901    1674.1172    1144.7856   -7375.1645   -6230.3789    0.8777114 
   37000    33.261465    1555.3822    1134.1324   -7373.8052   -6239.6728    0.8777114 
   37100    33.104128    1650.1382    1128.7676   -7382.5904   -6253.8229    0.8777114 
   37200     34.01463    1609.7125    1159.8134   -7386.6977   -6226.8844    0.8777114 
   37300    32.980828    1593.0392    1124.5633   -7375.3029   -6250.7396    0.8777114 
   37400     33.11926    1642.4766    1129.2835    -7382.999   -6253.7155    0.8777114 
   37500    33.621499    1650.6377    1146.4086   -7397.6114   -6251.2028    0.8777114 
   37600    33.206788    1616.0718     1132.268   -7368.8437   -6236.5757    0.8777114 
   37700    33.271132    1620.1175     1134.462   -7391.1763   -6256.7143    0.8777114 
   37800    33.590335    1565.4638     1145.346   -7385.5238   -6240.1778    0.8777114 
   37900    33.693947    1620.5234    1148.8789   -7397.8341   -6248.9552    0.8777114 
   38000    33.259973    1601.2881    1134.0815   -7399.0007   -6264.9192    0.8777114 
   38100    32.996212    1598.6468    1125.0879     -7406.64   -6281.5521    0.8777114 
   38200    33.638344    1614.6642     1146.983   -7387.7135   -6240.7305    0.8777114 
   38300    33.323639    1609.4253    1136.2523   -7408.0268   -6271.7745    0.8777114 
   38400    33.766034    1579.1939    1151.3369   -7382.4628   -6231.1259    0.8777114 
   38500    33.772501    1597.3531    1151.5574   -7404.1474     -6252.59    0.8777114 
   38600    33.676764    1616.5245     1148.293   -7399.4403   -6251.1473    0.8777114 
   38700    33.565191    1624.6952    1144.4887   -7395.5917    -6251.103    0.8777114 
   38800    34.114099    1608.0471     1163.205   -7412.3995   -6249.1945    0.8777114 
   38900    33.344441    1605.1213    1136.9616   -7382.0557   -6245.0941    0.8777114 
   39000    33.568995    1621.4008    1144.6184   -7421.9757   -6277.3574    0.8777114 
   39100    34.388427    1580.3643    1172.5589    -7393.607   -6221.0481    0.8777114 
   39200    34.222464    1561.7186       1166.9   -7401.7053   -6234.8053    0.8777114 
   39300    34.173087    1616.8624    1165.2164   -7422.5721   -6257.3557    0.8777114 
   39400    34.450234    1642.4449    1174.6664    -7410.924   -6236.2576    0.8777114 
   39500    33.840819    1602.8893    1153.8869   -7421.4408   -6267.5539    0.8777114 
   39600    34.579575    1625.9418    1179.0766   -7408.2948   -6229.2182    0.8777114 
   39700    33.750118    1589.7834    1150.7942   -7398.5774   -6247.7832    0.8777114 
   39800     34.38582    1647.6372      1172.47   -7418.6384   -6246.1684    0.8777114 
   39900    34.176772    1557.3556     1165.342    -7402.374    -6237.032    0.8777114 
   40000    34.701408    1547.7681    1183.2308   -7438.4653   -6255.2346    0.8777114 
   40100    34.699046    1673.1368    1183.1503    -7444.279   -6261.1288    0.8777114 
   40200    34.206211    1639.6187    1166.3458   -7420.0982   -6253.7524    0.8777114 
   40300    35.023518    1612.1772    1194.2139   -7392.1453   -6197.9314    0.8777114 
   40400    35.014091     1683.777    1193.8925   -7414.2276   -6220.3351    0.8777114 
   40500    34.765929    1601.7485    1185.4308   -7419.4175   -6233.9867    0.8777114 
   40600     34.67929    1646.3175    1182.4766   -7439.7085   -6257.2318    0.8777114 
   40700    34.301009    1581.9994    1169.5782   -7433.0476   -6263.4694    0.8777114 
   40800    35.106503    1515.4368    1197.0435   -7441.4407   -6244.3973    0.8777114 
   40900    34.503124    1628.1752    1176.4698   -7418.1843   -6241.7145    0.8777114 
   41000    35.029586     1589.785    1194.4208   -7422.6504   -6228.2295    0.8777114 
   41100    34.890642    1587.2045    1189.6832   -7424.0963   -6234.4132    0.8777114 
   41200    34.538682    1615.4451    1177.6822   -7430.1111   -6252.4289    0.8777114 
   41300    35.016066    1591.7859    1193.9598   -7406.6086   -6212.6488    0.8777114 
   41400    34.779241    1631.8771    1185.8847   -7420.4912   -6234.6065    0.8777114 
   41500    35.650314    1557.1219    1215.5861   -7414.1049   -6198.5188    0.8777114 
   41600    35.271011    1611.1467    1202.6528    -7428.584   -6225.9312    0.8777114 
   41700    35.159353    1612.5573    1198.8456   -7426.3696   -6227.5241    0.8777114 
   41800    35.549965    1557.0615    1212.1644   -7421.6279   -6209.4634    0.8777114 
   41900    35.248798     1642.789    1201.8954   -7430.2413   -6228.3459    0.8777114 
   42000    35.114607    1559.1261    1197.3198    -7432.417   -6235.0972    0.8777114 
   42100    35.159958     1581.551    1198.8662    -7448.919   -6250.0528    0.8777114 
   42200    35.600647     1618.389    1213.8926   -7421.7418   -6207.8493    0.8777114 
   42300    35.693748    1593.1171    1217.0671    -7425.853   -6208.7859    0.8777114 
   42400    35.310561    1569.1389    1204.0014   -7437.2277   -6233.2264    0.8777114 
   42500    35.692315    1597.0627    1217.0182   -7422.6128   -6205.5945    0.8777114 
   42600    35.697197    1584.5221    1217.1847    -7423.639   -6206.4544    0.8777114 
   42700    36.357396     1611.416    1239.6958   -7433.7454   -6194.0496    0.8777114 
   42800    35.976896    1584.0092    1226.7217    -7446.352   -6219.6302    0.8777114 
   42900    35.468718    1513.3612    1209.3941   -7444.8456   -6235.4515    0.8777114 
   43000    36.014155    1550.4446    1227.9922    -7431.056   -6203.0639    0.8777114 
   43100    35.395663    1550.1788    1206.9031   -7452.4294   -6245.5262    0.8777114 
   43200    35.696811    1571.3655    1217.1715   -7446.4878   -6229.3163    0.8777114 
   43300    35.066099     1568.328    1195.6658   -7451.5997   -6255.9339    0.8777114 
   43400    35.547012    1572.1774    1212.0638   -7458.8657    -6246.802    0.8777114 
   43500    35.661373    1559.9753    1215.9632   -7454.0591   -6238.0959    0.8777114 
   43600    36.330297     1488.359    1238.7718   -7461.3617   -6222.5899    0.8777114 
   43700    36.177174    1580.3214    1233.5507   -7444.3711   -6210.8204    0.8777114 
   43800    36.376107    1554.8507    1240.3338   -7454.5062   -6214.1724    0.8777114 
   43900    36.231058    1583.6972     1235.388   -7451.2916   -6215.9035    0.8777114 
   44000    36.095392    1521.1978    1230.7621   -7464.8388   -6234.0767    0.8777114 
   44100    36.716063    1569.5848    1251.9254   -7460.4407   -6208.5152    0.8777114 
   44200    36.326222    1533.3127    1238.6329   -7462.1651   -6223.5323    0.8777114 
   44300     36.21818    1507.5242    1234.9489   -7461.5003   -6226.5514    0.8777114 
   44400    36.062659     1530.604     1229.646   -7463.5489   -6233.9028    0.8777114 
   44500    36.077012    1551.6035    1230.1354   -7474.5588   -6244.4233    0.8777114 
   44600    36.283104    1523.2511    1237.1626   -7446.7941   -6209.6315    0.8777114 
   44700    36.161157    1607.8124    1233.0046   -7461.3578   -6228.3533    0.8777114 
   44800    36.449204    1465.6921    1242.8262   -7450.3277   -6207.5015    0.8777114 
   44900    36.762947    1498.8592    1253.5241   -7447.6428   -6194.1187    0.8777114 
   45000     36.30246    1472.1073    1237.8226   -7452.9659   -6215.1433    0.8777114 
   45100    36.651201    1539.2971    1249.7138   -7455.3189   -6205.6051    0.8777114 
   45200    36.132222    1505.5851     1232.018   -7467.0218   -6235.0038    0.8777114 
   45300    36.450964    1540.7691    1242.8862   -7469.9699   -6227.0837    0.8777114 
   45400    36.676464     1546.829    1250.5752   -7455.4179   -6204.8427    0.8777114 
   45500    36.510703    1477.9614    1244.9232   -7486.6975   -6241.7743    0.8777114 
   45600    37.115924    1472.1098    1265.5597   -7470.4967    -6204.937    0.8777114 
   45700    37.070998    1539.1051    1264.0278    -7468.735   -6204.7072    0.8777114 
   45800    37.116567    1499.2135    1265.5816   -7473.3778   -6207.7962    0.8777114 
   45900    36.986276    1446.8194     1261.139   -7467.8348   -6206.6957    0.8777114 
   46000     36.71992    1477.2691     1252.057   -7476.5971   -6224.5401    0.8777114 
   46100    37.103804    1501.5225    1265.1465   -7470.7293   -6205.5828    0.8777114 
   46200    36.835877    1522.6601    1256.0108   -7480.2961   -6224.2853    0.8777114 
   46300    36.969505    1548.7542    1260.5672   -7475.2168   -6214.6496    0.8777114 
   46400    37.105917    1510.1395    1265.2185     -7464.87   -6199.6515    0.8777114 
   46500    36.841005    1470.5452    1256.1857    -7476.683   -6220.4973    0.8777114 
   46600    37.582372    1503.0988    1281.4644    -7468.261   -6186.7966    0.8777114 
   46700    36.713739    1422.8217    1251.8462   -7462.9727   -6211.1265    0.8777114 
   46800    37.174919    1460.8758    1267.5713    -7466.117   -6198.5457    0.8777114 
   46900    38.040764    1510.6947    1297.0944   -7457.9425   -6160.8481    0.8777114 
   47000    37.230601    1476.3865    1269.4699   -7472.5576   -6203.0877    0.8777114 
   47100    36.634909    1480.6447    1249.1583    -7466.761   -6217.6027    0.8777114 
   47200    37.347111    1487.7628    1273.4426   -7505.1478   -6231.7052    0.8777114 
   47300    37.538154    1435.6685    1279.9567   -7470.0142   -6190.0575    0.8777114 
   47400    37.840821    1484.4087    1290.2769   -7501.5197   -6211.2429    0.8777114 
   47500    38.055154     1437.911    1297.5851   -7474.8979   -6177.3128    0.8777114 
   47600    37.383793    1483.0694    1274.6934   -7489.6867   -6214.9933    0.8777114 
   47700    37.423741    1482.2816    1276.0555   -7465.6305    -6189.575    0.8777114 
   47800     37.41424    1475.7809    1275.7315   -7455.7883   -6180.0568    0.8777114 
   47900    37.885866    1417.6653    1291.8128   -7477.6966   -6185.8838    0.8777114 
   48000     38.10594    1431.2871    1299.3167   -7482.0329   -6182.7162    0.8777114 
   48100    37.675421     1508.225    1284.6372   -7498.9579   -6214.3207    0.8777114 
   48200    38.141181    1459.4439    1300.5184   -7484.3813   -6183.8629    0.8777114 
   48300    37.823312    1483.3206    1289.6799   -7484.4938   -6194.8139    0.8777114 
   48400    38.457818    1486.8835    1311.3149   -7462.8269   -6151.5119    0.8777114 
   48500    38.081854    1451.0245    1298.4955   -7480.3782   -6181.8827    0.8777114 
   48600    38.024373      1480.69    1296.5355   -7492.4894   -6195.9538    0.8777114 
   48700    37.526283    1453.6948    1279.5519   -7483.6279    -6204.076    0.8777114 
   48800    37.827318    1379.4714    1289.8165   -7475.3877   -6185.5713    0.8777114 
   48900    38.233257    1427.5831     1303.658    -7480.919    -6177.261    0.8777114 
   49000    37.746582    1423.0691    1287.0636   -7473.1764   -6186.1128    0.8777114 
   49100    38.488752    1413.1507    1312.3697   -7471.5644   -6159.1947    0.8777114 
   49200    38.038425    1426.3464    1297.0147   -7489.1548   -6192.1401    0.8777114 
   49300    38.411866    1448.6362    1309.7481   -7480.1161    -6170.368    0.8777114 
   49400    38.294555    1506.3249    1305.7481    -7493.577    -6187.829    0.8777114 
   49500    38.615309    1466.0206     1316.685    -7503.754    -6187.069    0.8777114 
   49600    38.600983    1420.5046    1316.1965   -7489.3983   -6173.2018    0.8777114 
   49700    38.300765    1447.7999    1305.9598   -7513.5814   -6207.6216    0.8777114 
   49800    38.642442    1428.8316    1317.6101   -7514.3543   -6196.7442    0.8777114 
   49900    37.997532    1371.6255    1295.6203   -7494.8569   -6199.2366    0.8777114 
   50000     38.92855    1473.0328    1327.3657   -7494.1897   -6166.8241    0.8777114 
   50100    38.865869    1400.7365    1325.2284    -7487.527   -6162.2985    0.8777114 
   50200    38.501991    1391.4751    1312.8211   -7508.8888   -6196.0677    0.8777114 
   50300     39.56434    1413.1729    1349.0446   -7505.0497   -6156.0051    0.8777114 
   50400    39.237368     1440.681    1337.8956   -7515.2175   -6177.3218    0.8777114 
   50500    39.205087    1495.9045    1336.7949   -7507.8977   -6171.1028    0.8777114 
   50600    38.945167    1504.6497    1327.9323   -7497.6048   -6169.6725    0.8777114 
   50700    39.713042    1492.8948    1354.1149   -7486.7029    -6132.588    0.8777114 
   50800     39.25833    1450.5237    1338.6104   -7492.4789   -6153.8685    0.8777114 
   50900    39.174992    1474.3278    1335.7687   -7489.4204   -6153.6516    0.8777114 
   51000     38.90275    1404.9628     1326.486   -7492.8511   -6166.3651    0.8777114 
   51100    39.311754    1426.3187     1340.432   -7495.4558   -6155.0238    0.8777114 
   51200    38.924593    1404.4972    1327.2308   -7506.6879   -6179.4571    0.8777114 
   51300    39.002803    1401.7028    1329.8975   -7497.3094   -6167.4119    0.8777114 
   51400    39.558153    1438.9159    1348.8336   -7503.1667   -6154.3331    0.8777114 
   51500    39.949016    1387.2536     1362.161   -7511.2188   -6149.0578    0.8777114 
   51600    39.150919    1457.3534    1334.9479   -7500.4573   -6165.5094    0.8777114 
   51700    39.265125    1435.5536     1338.842   -7512.9893   -6174.1473    0.8777114 
   51800    39.442313    1330.7415    1344.8837   -7496.8826   -6151.9988    0.8777114 
   51900    39.177378    1385.3305    1335.8501   -7509.2445   -6173.3944    0.8777114 
   52000    39.886262    1414.2297    1360.0213   -7496.6649   -6136.6436    0.8777114 
   52100    39.176495     1508.627      1335.82   -7514.8023   -6178.9823    0.8777114 
   52200    39.859544    1429.0277    1359.1103   -7496.4982   -6137.3879    0.8777114 
   52300    39.995454    1412.5456    1363.7444   -7497.1705    -6133.426    0.8777114 
   52400    39.060509    1331.7599    1331.8652   -7514.4219   -6182.5567    0.8777114 
   52500    39.351969    1459.9122    1341.8032   -7530.7899   -6188.9867    0.8777114 
   52600    39.808992    1426.3345    1357.3866    -7497.255   -6139.8684    0.8777114 
   52700    39.331411    1411.7273    1341.1022   -7531.0911   -6189.9889    0.8777114 
   52800    39.561099    1478.2934     1348.934   -7488.0975   -6139.1635    0.8777114 
   52900    39.871441    1406.1356    1359.5159   -7515.7117   -6156.1958    0.8777114 
   53000    40.229992    1440.9069    1371.7416   -7524.4922   -6152.7507    0.8777114 
   53100    39.648052    1398.0492    1351.8989   -7509.9044   -6158.0055    0.8777114 
   53200    39.510063    1393.6124    1347.1938   -7537.5483   -6190.3544    0.8777114 
   53300    40.227167    1340.2105    1371.6453   -7534.4585   -6162.8132    0.8777114 
   53400    40.190317    1399.2388    1370.3888   -7524.6323   -6154.2436    0.8777114 
   53500    40.259773    1402.5547    1372.7571   -7505.5812   -6132.8241    0.8777114 
   53600    39.541569    1323.9311    1348.2681   -7517.8107   -6169.5426    0.8777114 
   53700    39.358823    1356.8169    1342.0369   -7517.1517   -6175.1148    0.8777114 
   53800    39.428829    1376.4991     1344.424   -7514.3196   -6169.8956    0.8777114 
   53900    40.314633    1333.1545    1374.6276   -7525.2643   -6150.6367    0.8777114 
   54000     40.20261    1428.1985    1370.8079    -7521.054   -6150.2461    0.8777114 
   54100    40.476885    1400.3654      1380.16   -7529.0467   -6148.8866    0.8777114 
   54200    40.205338    1448.3579    1370.9009   -7524.2498   -6153.3489    0.8777114 
   54300    40.046557    1466.2125    1365.4869    -7522.911   -6157.4241    0.8777114 
   54400    40.558039    1445.7094    1382.9272    -7527.143   -6144.2158    0.8777114 
   54500    40.646668    1352.0682    1385.9492   -7504.9847   -6119.0355    0.8777114 
   54600    40.567434    1433.5401    1383.2475   -7539.6084   -6156.3609    0.8777114 
   54700    40.674579    1411.9273    1386.9009   -7520.7516   -6133.8507    0.8777114 
   54800    40.280438    1312.4382    1373.4617   -7512.1478   -6138.6861    0.8777114 
   54900    40.895812    1397.4932    1394.4444   -7519.7916   -6125.3472    0.8777114 
   55000     39.93064    1412.0644    1361.5345   -7503.3833   -6141.8489    0.8777114 
   55100    40.462214    1372.4926    1379.6598   -7528.7752   -6149.1154    0.8777114 
   55200    40.510818    1330.7663    1381.3171   -7534.6054   -6153.2884    0.8777114 
   55300    41.305694    1395.1404    1408.4203   -7533.0478   -6124.6275    0.8777114 
   55400    40.671454    1315.9521    1386.7944   -7520.9758   -6134.1814    0.8777114 
   55500    40.856094     1352.557    1393.0901   -7499.9234   -6106.8333    0.8777114 
   55600    41.309446    1331.2749    1408.5483   -7537.6875   -6129.1393    0.8777114 
   55700    40.443356    1269.5674    1379.0168   -7512.5661   -6133.5493    0.8777114 
   55800    41.378687    1343.2531    1410.9092   -7533.7945   -6122.8853    0.8777114 
   55900    40.914688    1354.1531     1395.088   -7529.1987   -6134.1107    0.8777114 
   56000    40.916906    1363.2281    1395.1636   -7550.2349   -6155.0712    0.8777114 
   56100    41.345735    1350.4701    1409.7856   -7551.7123   -6141.9267    0.8777114 
   56200    40.989927    1338.1823    1397.6535   -7565.5763   -6167.9228    0.8777114 
   56300    40.995024    1409.0546    1397.8273   -7542.0367   -6144.2094    0.8777114 
   56400    41.017481    1353.2229     1398.593   -7554.6539   -6156.0609    0.8777114 
   56500    41.148416    1325.0142    1403.0575   -7552.2741   -6149.2166    0.8777114 
   56600    41.205602    1257.7443    1405.0075    -7545.552   -6140.5446    0.8777114 
   56700    41.769984    1284.0294    1424.2514   -7556.8659   -6132.6145    0.8777114 
   56800    41.209665    1317.4425     1405.146   -7537.9613   -6132.8153    0.8777114 
   56900    41.191201    1392.5388    1404.5164   -7553.8633   -6149.3469    0.8777114 
   57000    40.756912    1287.1628    1389.7083   -7552.3648   -6162.6566    0.8777114 
   57100    41.112135    1324.8851    1401.8205   -7542.2027   -6140.3823    0.8777114 
   57200    41.209716    1308.1392    1405.1477    -7545.164   -6140.0163    0.8777114 
   57300    41.461686    1308.7308    1413.7392   -7538.0797   -6124.3404    0.8777114 
   57400    42.490082    1383.1522     1448.805   -7527.5344   -6078.7294    0.8777114 
   57500    41.569202    1316.0217    1417.4053   -7531.8326   -6114.4274    0.8777114 
   57600    41.307247    1358.9887    1408.4733   -7553.2968   -6144.8235    0.8777114 
   57700    41.683062    1273.1021    1421.2876   -7535.7999   -6114.5123    0.8777114 
   57800    41.370137    1292.8404    1410.6177   -7562.7345   -6152.1168    0.8777114 
   57900    41.526695     1239.306    1415.9559   -7556.9769    -6141.021    0.8777114 
   58000     41.74399    1316.2558    1423.3651   -7574.4339   -6151.0688    0.8777114 
   58100    41.665771     1232.555    1420.6981   -7542.2294   -6121.5314    0.8777114 
   58200    42.406817    1161.1535    1445.9659   -7563.9023   -6117.9365    0.8777114 
   58300     41.97382    1228.4323    1431.2018   -7547.7134   -6116.5116    0.8777114 
   58400     42.05245    1215.3935    1433.8828   -7551.5105   -6117.6277    0.8777114 
   58500    41.255984    1311.2969    1406.7254    -7569.216   -6162.4906    0.8777114 
   58600    42.104822    1289.6029    1435.6686   -7553.5456    -6117.877    0.8777114 
   58700    41.915128    1276.9225    1429.2005   -7575.3696   -6146.1691    0.8777114 
   58800     41.81878    1337.5049    1425.9153   -7550.5644   -6124.6491    0.8777114 
   58900    42.668217    1243.5268    1454.8789   -7556.5807   -6101.7018    0.8777114 
   59000    42.576371    1323.8756    1451.7472   -7527.3286   -6075.5814    0.8777114 
   59100    42.265359    1350.0986    1441.1425   -7537.4572   -6096.3148    0.8777114 
   59200    42.266823    1284.6672    1441.1924   -7543.8487   -6102.6563    0.8777114 
   59300    42.277587    1343.8373    1441.5595   -7540.9141   -6099.3547    0.8777114 
   59400    41.732965    1268.9071    1422.9892   -7560.3398   -6137.3506    0.8777114 
   59500    41.296315    1258.0831    1408.1005   -7542.4643   -6134.3638    0.8777114 
   59600    41.980269    1278.1341    1431.4216   -7573.4598   -6142.0382    0.8777114 
   59700    42.842231    1274.6019    1460.8124   -7545.1463   -6084.3339    0.8777114 
   59800    42.319714     1327.243    1442.9959   -7544.2802   -6101.2843    0.8777114 
   59900    42.569532    1262.2806     1451.514   -7549.2441     -6097.73    0.8777114 
   60000    42.598985    1279.1487    1452.5183   -7571.7748   -6119.2565    0.8777114 
   60100    43.348166    1256.5327    1478.0635   -7576.7684   -6098.7049    0.8777114 
   60200    42.471251    1266.3757    1448.1629   -7531.1444   -6082.9815    0.8777114 
   60300    42.953677    1337.4434    1464.6124     -7581.86   -6117.2476    0.8777114 
   60400    42.335878      1321.37     1443.547   -7535.2671   -6091.7201    0.8777114 
   60500    42.680083    1305.2401    1455.2835   -7523.6578   -6068.3743    0.8777114 
   60600    42.993185    1359.3484    1465.9595    -7554.677   -6088.7175    0.8777114 
   60700    43.073049    1327.2641    1468.6827   -7557.0245   -6088.3418    0.8777114 
   60800    41.715407    1306.0572    1422.3905    -7561.248   -6138.8575    0.8777114 
   60900    42.446648    1319.4114     1447.324   -7542.5612   -6095.2372    0.8777114 
   61000    43.335375    1302.5091    1477.6274   -7516.7046   -6039.0772    0.8777114 
   61100    42.812043    1358.3222    1459.7831   -7557.5372   -6097.7541    0.8777114 
   61200    43.050679    1232.9578    1467.9199   -7558.2275   -6090.3076    0.8777114 
   61300    43.275599    1284.8848    1475.5892   -7580.6923   -6105.1032    0.8777114 
   61400    43.017534    1334.4798    1466.7898   -7580.3764   -6113.5866    0.8777114 
   61500    42.797925    1292.0824    1459.3017   -7553.6583   -6094.3566    0.8777114 
   61600    42.952098    1248.8561    1464.5586   -7576.4356    -6111.877    0.8777114 
   61700    42.856587    1268.6322    1461.3019   -7566.2925   -6104.9906    0.8777114 
   61800    42.986833    1258.4213    1465.7429    -7542.523   -6076.7801    0.8777114 
   61900    43.453417     1243.376    1481.6523   -7539.7747   -6058.1224    0.8777114 
   62000    43.586934    1288.4962    1486.2049   -7568.6576   -6082.4527    0.8777114 
   62100    43.576523    1300.7376    1485.8499   -7549.0224   -6063.1725    0.8777114 
   62200    43.420495    1274.5822    1480.5297   -7585.6681   -6105.1384    0.8777114 
   62300    43.195097    1301.7357    1472.8442   -7589.8789   -6117.0346    0.8777114 
   62400    43.339789    1289.9195    1477.7779   -7560.7867   -6083.0088    0.8777114 
   62500    43.628863    1235.5845    1487.6346   -7568.6377   -6081.0031    0.8777114 
   62600    44.355222    1190.4386    1512.4016   -7576.1108   -6063.7092    0.8777114 
   62700    43.418925    1285.0367    1480.4762   -7586.4879   -6106.0117    0.8777114 
   62800    43.541458     1322.486    1484.6542   -7569.6561   -6085.0019    0.8777114 
   62900    42.835991    1257.7642    1460.5996   -7566.6932   -6106.0936    0.8777114 
   63000    43.827733    1241.8088    1494.4155   -7570.7092   -6076.2937    0.8777114 
   63100     43.38285    1244.6949    1479.2461   -7577.1486   -6097.9024    0.8777114 
   63200    43.766839    1262.3675    1492.3392   -7568.2621    -6075.923    0.8777114 
   63300    43.625282    1264.0176    1487.5124   -7561.2865    -6073.774    0.8777114 
   63400    44.449869    1256.6176    1515.6288   -7544.5803   -6028.9515    0.8777114 
   63500    43.829288    1295.9296    1494.4685   -7540.9067   -6046.4381    0.8777114 
   63600    43.806482    1269.6939    1493.6909   -7563.2263   -6069.5354    0.8777114 
   63700      43.7406    1263.1926    1491.4445   -7569.2943   -6077.8499    0.8777114 
   63800    44.135934    1250.2698    1504.9244   -7574.0678   -6069.1434    0.8777114 
   63900    44.144968    1214.1607    1505.2324   -7571.2604    -6066.028    0.8777114 
   64000    43.969724     1283.302     1499.257   -7575.9223   -6076.6653    0.8777114 
   64100    44.008962    1243.0557     1500.595   -7582.6518   -6082.0568    0.8777114 
   64200    44.564042    1242.2059    1519.5218   -7572.0533   -6052.5315    0.8777114 
   64300    44.080636    1311.1903    1503.0389   -7572.2832   -6069.2443    0.8777114 
   64400    43.987424    1270.3144    1499.8606   -7565.5033   -6065.6427    0.8777114 
   64500    43.606853    1272.3746    1486.8841   -7552.6761   -6065.7921    0.8777114 
   64600    44.385684     1236.171    1513.4402   -7571.4248   -6057.9846    0.8777114 
   64700    44.596465    1202.7657    1520.6273   -7563.8224   -6043.1951    0.8777114 
   64800    44.052318    1207.3146    1502.0733   -7596.6789   -6094.6056    0.8777114 
   64900    43.654179    1277.4012    1488.4977   -7575.4165   -6086.9188    0.8777114 
   65000    43.953558    1135.6166    1498.7058   -7580.5172   -6081.8113    0.8777114 
   65100    43.770929    1251.7727    1492.4787   -7606.1019   -6113.6232    0.8777114 
   65200    44.599222     1161.104    1520.7214   -7590.2651   -6069.5437    0.8777114 
   65300    45.118949    1260.2326    1538.4427   -7616.4213   -6077.9785    0.8777114 
   65400    44.670462    1287.5175    1523.1505   -7578.9037   -6055.7532    0.8777114 
   65500     44.03179    1236.7264    1501.3733   -7607.3613   -6105.9879    0.8777114 
   65600    45.043364    1284.0917    1535.8655    -7602.675   -6066.8095    0.8777114 
   65700    44.565584    1282.3247    1519.5744   -7578.1796   -6058.6052    0.8777114 
   65800    44.679632    1231.5312    1523.4631   -7571.5219   -6048.0587    0.8777114 
   65900    44.592581    1202.0173    1520.4949   -7590.2722   -6069.7773    0.8777114 
   66000    44.224951     1206.055    1507.9597    -7594.799   -6086.8394    0.8777114 
   66100    44.783614    1242.8934    1527.0087   -7566.9406   -6039.9319    0.8777114 
   66200    44.289187    1264.6626    1510.1499   -7597.5838   -6087.4339    0.8777114 
   66300     45.12595    1161.2665    1538.6815   -7586.7748   -6048.0933    0.8777114 
   66400    44.607382    1189.6201    1520.9996   -7599.6392   -6078.6396    0.8777114 
   66500    45.058878    1216.1467    1536.3945   -7594.9619   -6058.5674    0.8777114 
   66600    44.799976    1205.4396    1527.5666   -7563.9161   -6036.3496    0.8777114 
   66700    45.314195     1164.175    1545.1001   -7587.2818   -6042.1816    0.8777114 
   66800    45.132638    1194.1323    1538.9095   -7597.5982   -6058.6887    0.8777114 
   66900    45.346369    1198.8989    1546.1972   -7600.3819   -6054.1847    0.8777114 
   67000    44.772393    1143.5645     1526.626   -7571.6291   -6045.0031    0.8777114 
   67100    45.008385    1252.7579    1534.6728   -7597.3114   -6062.6386    0.8777114 
   67200    45.773003     1237.271    1560.7443   -7590.7768   -6030.0325    0.8777114 
   67300    44.922849    1215.3202    1531.7562   -7596.0421   -6064.2858    0.8777114 
   67400     44.60315    1164.9172    1520.8553   -7586.8412   -6065.9859    0.8777114 
   67500    45.864145    1225.4536    1563.8521   -7604.6956   -6040.8435    0.8777114 
   67600    44.855681    1189.2324     1529.466   -7615.9906   -6086.5247    0.8777114 
   67700    45.137932    1203.2589      1539.09   -7592.0426   -6052.9526    0.8777114 
   67800    44.672214    1239.1762    1523.2102     -7607.29   -6084.0798    0.8777114 
   67900    45.176473    1213.0492    1540.4041   -7597.7616   -6057.3575    0.8777114 
   68000    45.534851    1213.4416    1552.6239   -7587.3819    -6034.758    0.8777114 
   68100    45.148632     1251.584    1539.4549   -7592.7655   -6053.3106    0.8777114 
   68200    45.264416    1138.4799    1543.4028   -7605.6111   -6062.2083    0.8777114 
   68300    44.792033    1170.0183    1527.2957   -7596.9386   -6069.6429    0.8777114 
   68400    45.937208     1184.225    1566.3433   -7565.6137   -5999.2704    0.8777114 
   68500    45.023042    1222.5635    1535.1726   -7583.0266    -6047.854    0.8777114 
   68600     45.52857    1231.7557    1552.4098   -7585.2257   -6032.8159    0.8777114 
   68700    45.280096    1200.7618    1543.9374   -7591.5949   -6047.6574    0.8777114 
   68800    46.357323     1292.255    1580.6682   -7617.8775   -6037.2094    0.8777114 
   68900    45.878199    1207.8183    1564.3313   -7606.4557   -6042.1244    0.8777114 
   69000    45.235422    1190.0373    1542.4142   -7600.5588   -6058.1446    0.8777114 
   69100    46.202356    1183.3272    1575.3842    -7589.812   -6014.4278    0.8777114 
   69200    45.896498    1197.8554    1564.9552   -7608.1261   -6043.1709    0.8777114 
   69300    45.219773    1201.0594    1541.8806   -7594.3228   -6052.4422    0.8777114 
   69400     45.76777    1167.7879    1560.5659   -7596.4958   -6035.9298    0.8777114 
   69500    46.190418    1241.4316    1574.9771   -7614.8993   -6039.9222    0.8777114 
   69600    45.988155    1163.0803    1568.0805   -7592.9478   -6024.8673    0.8777114 
   69700    45.720683    1223.2009    1558.9604   -7607.2766   -6048.3162    0.8777114 
   69800    46.291749    1106.5311    1578.4323   -7615.2346   -6036.8023    0.8777114 
   69900    45.892181    1181.2566     1564.808   -7620.0599   -6055.2519    0.8777114 
   70000    45.985423    1182.6854    1567.9873   -7609.5511   -6041.5638    0.8777114 
   70100    46.038926    1035.7446    1569.8117   -7596.2553   -6026.4436    0.8777114 
   70200    45.798192    1161.0759    1561.6032   -7618.7638   -6057.1605    0.8777114 
   70300    45.903809    1172.8675    1565.2045   -7609.8132   -6044.6088    0.8777114 
   70400    46.472471    1176.2064    1584.5944   -7629.5036   -6044.9091    0.8777114 
   70500    46.657567    1122.6702    1590.9057   -7626.9873   -6036.0815    0.8777114 
   70600    46.710993    1136.2073    1592.7274    -7603.086   -6010.3586    0.8777114 
   70700    46.000206    1166.1251    1568.4914   -7599.1436   -6030.6522    0.8777114 
   70800    45.971662    1146.7787    1567.5181   -7599.8632   -6032.3451    0.8777114 
   70900     47.09931    1093.4573    1605.9681   -7615.0492   -6009.0811    0.8777114 
   71000    46.056606    1108.6364    1570.4145   -7604.4347   -6034.0202    0.8777114 
   71100    46.944721    1051.8497     1600.697   -7582.3107   -5981.6137    0.8777114 
   71200    46.185319     1192.496    1574.8033   -7601.0785   -6026.2752    0.8777114 
   71300    46.881129    1114.4498    1598.5286   -7612.5503   -6014.0217    0.8777114 
   71400    45.996608    1133.2262    1568.3687   -7625.0535   -6056.6848    0.8777114 
   71500    47.082518    1078.4813    1605.3955   -7605.6885    -6000.293    0.8777114 
   71600    46.893066    1122.8693    1598.9357   -7595.8213   -5996.8856    0.8777114 
   71700    46.692921    1151.6061    1592.1112   -7606.0438   -6013.9326    0.8777114 
   71800     46.75407    1107.5357    1594.1962   -7604.7248   -6010.5286    0.8777114 
   71900    46.935473    1117.2401    1600.3816   -7605.2689   -6004.8873    0.8777114 
   72000    46.768619    1094.7929    1594.6923   -7596.5507   -6001.8584    0.8777114 
   72100    47.661373    1147.9463     1625.133   -7626.6276   -6001.4945    0.8777114 
   72200    47.901453    1119.2901    1633.3191   -7582.1065   -5948.7874    0.8777114 
   72300    47.314388    1035.4417    1613.3017   -7574.2476   -5960.9459    0.8777114 
   72400    46.792907    1130.0237    1595.5205   -7580.3355    -5984.815    0.8777114 
   72500    47.451457    1114.1865    1617.9754   -7586.1318   -5968.1564    0.8777114 
   72600     47.19327    1199.7288    1609.1719   -7616.3706   -6007.1988    0.8777114 
   72700    46.855763    1072.4616    1597.6637   -7603.3582   -6005.6944    0.8777114 
   72800    47.171279    1030.4434     1608.422   -7649.5975   -6041.1755    0.8777114 
   72900    47.206951    1158.2616    1609.6384   -7621.5043    -6011.866    0.8777114 
   73000    46.849043    1094.0626    1597.4346   -7595.4701   -5998.0356    0.8777114 
   73100    47.376736    1168.3928    1615.4276   -7590.9444   -5975.5168    0.8777114 
   73200    47.448879    1042.4574    1617.8875   -7607.5487   -5989.6612    0.8777114 
   73300    47.019899    1113.2802    1603.2603   -7624.9155   -6021.6552    0.8777114 
   73400    46.437315    1146.2313    1583.3957   -7619.0889   -6035.6931    0.8777114 
   73500     46.89034    1139.9391    1598.8427   -7595.2227     -5996.38    0.8777114 
   73600    46.914146    1038.3945    1599.6544   -7604.1722   -6004.5178    0.8777114 
   73700    47.234762    1034.4545    1610.5866   -7603.7226    -5993.136    0.8777114 
   73800    47.508297    1099.1841    1619.9135   -7559.5453   -5939.6318    0.8777114 
   73900    46.993669    1057.9641     1602.366   -7586.5342   -5984.1682    0.8777114 
   74000    47.585665    1049.0518    1622.5515   -7585.3125    -5962.761    0.8777114 
   74100    46.986507    1037.3517    1602.1218   -7609.1435   -6007.0217    0.8777114 
   74200    47.378154    1121.1598     1615.476    -7598.441    -5982.965    0.8777114 
   74300    48.113387    1101.1181    1640.5455   -7579.0658   -5938.5203    0.8777114 
   74400    46.765351    1026.0404    1594.5809   -7599.8551   -6005.2742    0.8777114 
   74500    47.606892    1130.1639    1623.2753    -7567.601   -5944.3256    0.8777114 
   74600    46.748102     999.0356    1593.9928    -7577.646   -5983.6532    0.8777114 
   74700    47.150281    1103.1461    1607.7061   -7609.7146   -6002.0085    0.8777114 
   74800    48.128138    1085.3955    1641.0485   -7607.2197   -5966.1712    0.8777114 
   74900     48.16695    1109.1714    1642.3719     -7591.39   -5949.0181    0.8777114 
   75000    48.236059    1098.1615    1644.7284   -7569.7586   -5925.0302    0.8777114 
   75100    48.483994    1110.0098    1653.1823   -7585.0377   -5931.8554    0.8777114 
   75200    47.500411    1126.6092    1619.6446   -7581.1867   -5961.5421    0.8777114 
   75300     48.06336    1071.3275    1638.8398   -7600.0346   -5961.1948    0.8777114 
   75400    48.168348    1072.4079    1642.4196   -7594.7537   -5952.3341    0.8777114 
   75500    48.823869    1164.4056    1664.7712   -7587.0085   -5922.2373    0.8777114 
   75600    48.613905    1170.5674    1657.6119   -7587.8446   -5930.2326    0.8777114 
   75700    48.260193    1089.8339    1645.5513   -7607.5381   -5961.9868    0.8777114 
   75800    48.264324    1147.4096    1645.6921   -7592.9523   -5947.2602    0.8777114 
   75900    47.921995    1136.5258    1634.0196   -7578.5785   -5944.5589    0.8777114 
   76000    47.565873     1010.616    1621.8767   -7621.7112   -5999.8345    0.8777114 
   76100    48.695094    1117.8568    1660.3803   -7577.0004   -5916.6201    0.8777114 
   76200    48.682981    1121.1193    1659.9673   -7597.6298   -5937.6626    0.8777114 
   76300     48.35755    1165.2045    1648.8709   -7609.4788   -5960.6079    0.8777114 
   76400    48.442948    1091.9882    1651.7827   -7627.5271   -5975.7444    0.8777114 
   76500    47.262376    1099.3868    1611.5282   -7587.1148   -5975.5866    0.8777114 
   76600    48.133458    1149.1649    1641.2299   -7589.4921   -5948.2621    0.8777114 
   76700    48.264171     1085.026    1645.6869   -7610.7985   -5965.1116    0.8777114 
   76800    48.850963    1066.3171     1665.695   -7606.0043   -5940.3093    0.8777114 
   76900    48.002097     1126.451    1636.7508   -7559.9079   -5923.1571    0.8777114 
   77000    48.635674     1033.715    1658.3542   -7557.5116   -5899.1574    0.8777114 
   77100    48.466275    1035.7722    1652.5782   -7569.3393   -5916.7611    0.8777114 
   77200    48.695943    1023.2347    1660.4092   -7596.2815   -5935.8722    0.8777114 
   77300    47.812568    1110.4972    1630.2884   -7585.7492   -5955.4609    0.8777114 
   77400    48.367466    1085.6345     1649.209   -7578.2421   -5929.0331    0.8777114 
   77500     49.31936    1075.0999    1681.6662    -7583.609   -5901.9428    0.8777114 
   77600    49.052133    1025.9064    1672.5544   -7599.7716   -5927.2171    0.8777114 
   77700    48.024729    1076.5705    1637.5225   -7577.3591   -5939.8366    0.8777114 
   77800    48.056673    1069.8289    1638.6118   -7605.2307    -5966.619    0.8777114 
   77900    48.290969    1133.7365    1646.6007   -7600.6284   -5954.0278    0.8777114 
   78000    48.587483     1031.941     1656.711   -7570.7274   -5914.0164    0.8777114 
   78100    49.011461    1139.7272    1671.1676   -7592.2752   -5921.1076    0.8777114 
   78200    49.388269     1023.892    1684.0158   -7572.6747   -5888.6589    0.8777114 
   78300     49.34966     1079.567    1682.6993   -7608.6695   -5925.9702    0.8777114 
   78400    48.928748     1078.856    1668.3473   -7621.3218   -5952.9745    0.8777114 
   78500    49.430601    993.18529    1685.4592   -7580.1553   -5894.6961    0.8777114 
   78600    48.092393    1033.9557    1639.8297   -7586.0576   -5946.2279    0.8777114 
   78700    48.782961    1109.4234    1663.3763    -7599.071   -5935.6947    0.8777114 
   78800    49.880538    1026.0741     1700.801   -7629.6184   -5928.8174    0.8777114 
   78900    49.915438    972.28281     1701.991   -7607.6483   -5905.6574    0.8777114 
   79000    49.973379     1039.416    1703.9666   -7623.0968   -5919.1302    0.8777114 
   79100    49.216104    1047.1454    1678.1454   -7621.7017   -5943.5563    0.8777114 
   79200    49.292876    1064.7609    1680.7632   -7615.6384   -5934.8752    0.8777114 
   79300    48.842788    1028.0342    1665.4163   -7607.0303    -5941.614    0.8777114 
   79400    49.378015    1019.8033    1683.6662   -7609.3492    -5925.683    0.8777114 
   79500     49.83075     1011.562    1699.1033    -7628.774   -5929.6707    0.8777114 
   79600    48.879074    990.06269    1666.6535   -7599.8813   -5933.2277    0.8777114 
   79700    48.504902    1092.7455    1653.8952   -7642.6458   -5988.7506    0.8777114 
   79800    48.722159    1088.1206    1661.3032   -7638.4913   -5977.1881    0.8777114 
   79900    50.061059    1006.3932    1706.9563   -7625.5208   -5918.5646    0.8777114 
   80000    49.943789      1074.73    1702.9577   -7623.4397   -5920.4821    0.8777114 
   80100    49.920025    971.34302    1702.1474   -7610.0997   -5907.9524    0.8777114 
   80200    49.918961    964.52004    1702.1111   -7609.8569   -5907.7459    0.8777114 
   80300    48.990733    993.65114    1670.4608   -7570.7573   -5900.2964    0.8777114 
   80400    50.042444    1131.6632    1706.3215    -7587.492   -5881.1705    0.8777114 
   80500    49.337995    1035.3356    1682.3016   -7609.4291   -5927.1275    0.8777114 
   80600    49.296154    996.74288    1680.8749   -7624.4175   -5943.5425    0.8777114 
   80700    50.011979    1006.5632    1705.2828   -7597.4459   -5892.1632    0.8777114 
   80800    50.112432    937.23192     1708.708   -7612.9717   -5904.2637    0.8777114 
   80900    50.211101    988.13249    1712.0723   -7603.5828   -5891.5105    0.8777114 
   81000    50.502297    1031.3966    1722.0014   -7605.4069   -5883.4055    0.8777114 
   81100    50.617435      1063.99    1725.9273   -7630.5037   -5904.5764    0.8777114 
   81200    50.405834    1056.0382    1718.7122   -7608.6017   -5889.8894    0.8777114 
   81300    48.615828    993.42372    1657.6775   -7629.6272   -5971.9497    0.8777114 
   81400    50.495251     957.8058    1721.7611   -7639.6806   -5917.9195    0.8777114 
   81500    49.928013    1004.3406    1702.4197   -7620.2814   -5917.8617    0.8777114 
   81600    50.687467    991.17812    1728.3152   -7601.2911   -5872.9759    0.8777114 
   81700    49.896713    1066.5534    1701.3525   -7586.6652   -5885.3127    0.8777114 
   81800    50.520377    960.02123    1722.6179   -7635.6643   -5913.0464    0.8777114 
   81900    50.096337     982.4193    1708.1592   -7580.1904   -5872.0312    0.8777114 
   82000     50.86297    1053.6583    1734.2994   -7588.4644    -5854.165    0.8777114 
   82100    50.753219    981.93866    1730.5572   -7590.3033   -5859.7462    0.8777114 
   82200    51.340586    1057.3015    1750.5849   -7573.6799   -5823.0949    0.8777114 
   82300     50.18251    968.72111    1711.0975   -7605.5053   -5894.4078    0.8777114 
   82400    50.438402    1070.2909    1719.8227   -7605.9289   -5886.1061    0.8777114 
   82500    50.216432    1043.4995    1712.2541   -7629.2937   -5917.0397    0.8777114 
   82600     51.07757    992.91194    1741.6167   -7598.6394   -5857.0227    0.8777114 
   82700    51.925594    1022.1411    1770.5322   -7650.5485   -5880.0163    0.8777114 
   82800     50.99374    1028.4099    1738.7583   -7576.8985   -5838.1402    0.8777114 
   82900    51.184025    1053.3117    1745.2466   -7571.3233   -5826.0767    0.8777114 
   83000      50.1414    1047.2207    1709.6957   -7592.4476   -5882.7519    0.8777114 
   83100    50.992575    932.73844    1738.7186    -7618.626   -5879.9074    0.8777114 
   83200     49.97546    966.90813    1704.0375   -7569.8633   -5865.8258    0.8777114 
   83300    50.865959    1015.7203    1734.4013   -7620.0522   -5885.6509    0.8777114 
   83400    50.985914    1021.8451    1738.4915   -7621.0099   -5882.5184    0.8777114 
   83500    51.078512    978.94781    1741.6489   -7611.8471   -5870.1982    0.8777114 
   83600    50.465713    1086.7997    1720.7539   -7626.9652   -5906.2112    0.8777114 
   83700    51.137527    1026.0565    1743.6611   -7627.4279   -5883.7667    0.8777114 
   83800    50.265628    928.34015    1713.9315   -7631.8953   -5917.9638    0.8777114 
   83900    50.762298    977.79487    1730.8668   -7572.4579   -5841.5911    0.8777114 
   84000    51.154641     984.2007    1744.2447   -7611.4852   -5867.2405    0.8777114 
   84100    50.889016    1021.1262    1735.1875   -7586.9561   -5851.7686    0.8777114 
   84200    51.757795    906.84247    1764.8107   -7625.3736   -5860.5629    0.8777114 
   84300    51.819113    968.27371    1766.9015   -7623.5482   -5856.6467    0.8777114 
   84400    50.666535    1063.5791    1727.6015   -7597.3737   -5869.7722    0.8777114 
   84500    51.759036    901.88513     1764.853   -7617.4318   -5852.5788    0.8777114 
   84600    51.944566    1003.6699    1771.1791   -7589.5757   -5818.3966    0.8777114 
   84700    51.922856    952.80226    1770.4389   -7583.9368    -5813.498    0.8777114 
   84800    51.561222     1001.803    1758.1081   -7603.7022   -5845.5942    0.8777114 
   84900    51.212807    1006.3254     1746.228   -7619.1333   -5872.9053    0.8777114 
   85000     51.86202    1059.5828    1768.3645    -7603.942   -5835.5775    0.8777114 
   85100    52.946667    955.06785    1805.3482   -7611.8179   -5806.4697    0.8777114 
   85200    51.333726     1006.272     1750.351   -7616.0735   -5865.7225    0.8777114 
   85300     51.26226    1013.0213    1747.9142   -7623.4565   -5875.5423    0.8777114 
   85400     51.76025    954.33597    1764.8944   -7596.1128   -5831.2184    0.8777114 
   85500    51.923563    1020.4544     1770.463   -7580.4707   -5810.0078    0.8777114 
   85600     51.13033    979.41152    1743.4157   -7565.3491   -5821.9333    0.8777114 
   85700     51.33737    944.33646    1750.4753   -7609.1869   -5858.7116    0.8777114 
   85800    51.424071    957.31763    1753.4315   -7607.8084   -5854.3769    0.8777114 
   85900    51.965733    975.73174    1771.9009   -7608.2335   -5836.3326    0.8777114 
   86000     51.57236    916.89147    1758.4878   -7600.4626   -5841.9747    0.8777114 
[...]
  179300    339.72443    687.46389    11583.749    1584.3205    13168.069    0.8777114 
  179400    341.76792    775.58325    11653.427    1648.4452    13301.872    0.8777114 
  179500    339.83572    729.03572    11587.544    1771.5298    13359.073    0.8777114 
  179600     339.9892    711.44436    11592.777    1619.9978    13212.775    0.8777114 
  179700    340.08202    819.42052    11595.942    1717.9871    13313.929    0.8777114 
  179800    338.69163    822.71425    11548.533    1765.7454    13314.279    0.8777114 
  179900    337.00875     871.4388    11491.151    1760.7448    13251.896    0.8777114 
  180000    341.99507    824.00151    11661.172    1641.6317    13302.804    0.8777114 
  180100    339.24263    765.15435    11567.321    1729.5907    13296.911    0.8777114 
  180200    340.28894    592.50216    11602.998    1790.4681    13393.466    0.8777114 
  180300    339.71193    598.46301    11583.323    1874.1673     13457.49    0.8777114 
  180400    341.50731    622.62155    11644.541    1615.1325    13259.673    0.8777114 
  180500    339.99642    703.43711    11593.023    1697.2976    13290.321    0.8777114 
  180600    337.21641    772.32487    11498.232    1821.2368    13319.469    0.8777114 
  180700    344.51255    710.05901    11747.012    1664.7119    13411.724    0.8777114 
  180800    338.92688    776.19873    11556.555     1841.204    13397.759    0.8777114 
  180900     340.4317    954.98558    11607.865    1799.0459    13406.911    0.8777114 
  181000    342.37077    876.20034    11673.983    1804.0692    13478.052    0.8777114 
  181100    342.38715    707.94266    11674.541    1687.2488     13361.79    0.8777114 
  181200    338.43045     957.0344    11539.627    1639.3745    13179.002    0.8777114 
  181300    339.40618    847.17186    11572.898    1593.6254    13166.523    0.8777114 
  181400    336.89292    937.92321    11487.202    1601.3395    13088.541    0.8777114 
  181500    341.31984    700.78252    11638.149    1704.4346    13342.583    0.8777114 
  181600    341.86358    921.14947    11656.689    1796.8843    13453.573    0.8777114 
  181700    341.01836    711.87901    11627.869    1834.5057    13462.375    0.8777114 
  181800    341.20435    907.78623     11634.21    1690.1922    13324.403    0.8777114 
  181900    337.35878     774.5642    11503.086    1652.3412    13155.427    0.8777114 
  182000    342.75227    754.57656    11686.991    1666.7279    13353.719    0.8777114 
  182100    341.71197      964.365    11651.519    1777.6521    13429.171    0.8777114 
  182200    343.54447     735.9605    11714.003    1949.8175     13663.82    0.8777114 
  182300       343.98    805.72994    11728.853    1859.9294    13588.783    0.8777114 
  182400    342.51917    971.67675    11679.043    1711.6427    13390.685    0.8777114 
  182500    342.72417    708.18976    11686.033    1633.5588    13319.591    0.8777114 
  182600    345.30119    760.08034    11773.903     1679.639    13453.541    0.8777114 
  182700    342.15683    811.14587    11666.688    1793.3388    13460.027    0.8777114 
  182800    341.08166    845.38625    11630.027    1733.6495    13363.677    0.8777114 
  182900     344.4255     656.8463    11744.044    1746.0023    13490.046    0.8777114 
  183000    344.37085     796.5895     11742.18    1907.0998     13649.28    0.8777114 
  183100    345.60494      836.247     11784.26    1942.8982    13727.158    0.8777114 
  183200    343.89427    808.59359     11725.93    1953.4612    13679.391    0.8777114 
  183300    336.00383    742.70322    11456.886     1876.314      13333.2    0.8777114 
  183400     337.5897    826.07898     11510.96    1692.8654    13203.825    0.8777114 
  183500    342.29264    617.14024    11671.318    1921.2632    13592.582    0.8777114 
  183600    346.65161     901.5779    11819.949    1994.7169    13814.665    0.8777114 
  183700    348.41737    964.51063    11880.156    1991.3368    13871.493    0.8777114 
  183800    347.90802    782.07946    11862.789      1937.08    13799.869    0.8777114 
  183900    343.25273    1063.9726    11704.055    1894.6938    13598.749    0.8777114 
  184000    342.71122    601.58098    11685.591    1988.8539    13674.445    0.8777114 
  184100    345.35492    774.93657    11775.735    1783.8794    13559.614    0.8777114 
  184200    346.91086    1044.2647    11828.788    1860.1625    13688.951    0.8777114 
  184300    342.55663    1028.8265     11680.32    1918.8479    13599.168    0.8777114 
  184400    346.36525    973.21433    11810.184    2058.0481    13868.232    0.8777114 
  184500    345.42921    852.25172    11778.268    1858.7043    13636.972    0.8777114 
  184600    341.88199    775.68681    11657.317    1934.8476    13592.164    0.8777114 
  184700    344.29507    810.33358    11739.596    1854.3896    13593.986    0.8777114 
  184800    342.58856    925.91433    11681.409    1868.7037    13550.112    0.8777114 
  184900    341.09783    772.43599    11630.579     1818.404    13448.983    0.8777114 
  185000    340.78471    721.14874    11619.902    1793.3639    13413.266    0.8777114 
  185100    339.96957    931.03121    11592.108    1870.4712    13462.579    0.8777114 
  185200    343.92208    773.63317    11726.879     1884.057    13610.936    0.8777114 
  185300    345.62175    545.85646    11784.833    1906.4875     13691.32    0.8777114 
  185400    345.42777    719.47488    11778.219    1655.4941    13433.713    0.8777114 
  185500    344.30339    717.97134     11739.88    1936.3338    13676.214    0.8777114 
  185600    348.39913    782.67489    11879.534    2050.8003    13930.335    0.8777114 
  185700    346.77937    666.49087    11824.305    2066.3613    13890.666    0.8777114 
  185800    345.93603     806.1428    11795.549    2002.7556    13798.305    0.8777114 
  185900    349.51398    886.59313    11917.548    1915.4741    13833.022    0.8777114 
  186000    346.44454    1054.7554    11812.888    1749.9304    13562.818    0.8777114 
  186100    344.24036    871.07631    11737.731    1815.0255    13552.756    0.8777114 
  186200    341.64585    739.98904    11649.265    1937.1934    13586.458    0.8777114 
  186300    349.56412     895.6464    11919.258    1715.6917    13634.949    0.8777114 
  186400    346.50513    782.11823    11814.954    2035.3502    13850.304    0.8777114 
  186500    342.51946     856.6031    11679.052    1900.1935    13579.246    0.8777114 
  186600    342.36103     747.6792     11673.65    2016.3005    13689.951    0.8777114 
  186700    344.08736    888.95932    11732.514    2006.8042    13739.318    0.8777114 
  186800    343.66942    670.41451    11718.263    1911.0019    13629.265    0.8777114 
  186900    344.81524    854.20923    11757.333    1932.1097    13689.442    0.8777114 
  187000    348.43873    859.66119    11880.885    1916.5906    13797.475    0.8777114 
  187100    346.97803    746.93484    11831.079    2026.7415     13857.82    0.8777114 
  187200    347.24045    830.98821    11840.026    2067.6973    13907.724    0.8777114 
  187300    343.16517    866.85512    11701.069    2016.6445    13717.714    0.8777114 
  187400    346.66495    1019.9966    11820.403    1911.3959    13731.799    0.8777114 
  187500    342.26481    860.67433     11670.37     2100.779    13771.148    0.8777114 
  187600    344.40869    675.71677    11743.471     1914.895    13658.366    0.8777114 
  187700    343.17925    742.13128     11701.55    2003.5456    13705.095    0.8777114 
  187800    347.01567     946.6377    11832.362    2028.5657    13860.928    0.8777114 
  187900    346.52105     754.6716    11815.497    1931.9907    13747.487    0.8777114 
  188000     344.6345    809.50707     11751.17    2109.1257    13860.296    0.8777114 
  188100    347.73725    660.98901    11856.966    2012.9754    13869.941    0.8777114 
  188200    343.60258    859.66832    11715.984    2190.2466    13906.231    0.8777114 
  188300    348.96292    851.69322    11898.758    2138.3924    14037.151    0.8777114 
  188400    345.83507    748.45175    11792.106    2116.7263    13908.833    0.8777114 
  188500    347.12753     716.1042    11836.176    1969.7904    13805.967    0.8777114 
  188600     349.6322    813.08645    11921.579    1991.4421    13913.021    0.8777114 
  188700    348.19895    771.84605    11872.709     1929.224    13801.933    0.8777114 
  188800    350.11408    777.81817     11938.01    2049.7497     13987.76    0.8777114 
  188900    351.91925    799.42118    11999.562     2049.235    14048.797    0.8777114 
  189000    348.43619    974.51826    11880.798    2005.9938    13886.792    0.8777114 
  189100    343.89628    589.96997    11725.999    2095.9032    13821.902    0.8777114 
  189200    347.65797    833.05706    11854.263    1926.2096    13780.472    0.8777114 
  189300    349.19762    675.67306    11906.761    1953.8485     13860.61    0.8777114 
  189400    348.16119    939.71767    11871.422    2097.1904    13968.612    0.8777114 
  189500    348.44546    866.40098    11881.114    2039.2691    13920.384    0.8777114 
  189600    347.27958    742.62661    11841.361     2123.369     13964.73    0.8777114 
  189700    349.42924    595.41063    11914.659    2120.3436    14035.002    0.8777114 
  189800    348.30924    714.34177    11876.469    2168.4429    14044.912    0.8777114 
  189900    351.93169    707.63435    11999.986    2129.0919    14129.078    0.8777114 
  190000    349.88688    873.75519    11930.263    2059.5017    13989.765    0.8777114 
  190100    348.62078    819.12602    11887.092    2028.6612    13915.753    0.8777114 
  190200    350.75297    857.58381    11959.795    2104.3481    14064.143    0.8777114 
  190300    346.76594    882.98346    11823.847    2149.1204    13972.967    0.8777114 
  190400    350.96103     866.9153    11966.889    2102.7383    14069.627    0.8777114 
  190500    348.20938    767.11718    11873.065    1922.1398    13795.204    0.8777114 
  190600    347.35722    854.50193    11844.008    2193.8218     14037.83    0.8777114 
  190700     350.0689    973.09605     11936.47    1841.0214    13777.491    0.8777114 
  190800    348.48997    928.39923    11882.632    2011.9841    13894.616    0.8777114 
  190900    349.67719    822.32307    11923.113    1907.4061    13830.519    0.8777114 
  191000    347.04407    716.21314     11833.33    2083.1088    13916.439    0.8777114 
  191100    351.44461     878.1196    11983.378    2029.2851    14012.663    0.8777114 
  191200    347.75237    755.88711    11857.482    2185.0316    14042.513    0.8777114 
  191300    348.75006    657.32065      11891.5    2008.5306    13900.031    0.8777114 
  191400    348.72399    800.27006    11890.611    2034.2794    13924.891    0.8777114 
  191500    352.44995    795.60726    12017.657    2181.2891    14198.946    0.8777114 
  191600    354.81639    986.87177    12098.347    2111.0373    14209.384    0.8777114 
  191700    349.01011    668.82648    11900.368    2052.7151    13953.083    0.8777114 
  191800    349.67228    600.38545    11922.946     1979.464     13902.41    0.8777114 
  191900    346.29997    738.08249    11807.959    1990.6545    13798.613    0.8777114 
  192000    345.80392    846.49704    11791.044    2073.6701    13864.715    0.8777114 
  192100    349.54257    694.67303    11918.523    2060.9955    13979.518    0.8777114 
  192200    348.04451    703.15515    11867.443    2224.4862    14091.929    0.8777114 
  192300    354.51571    902.29364    12088.095    2215.0899    14303.184    0.8777114 
  192400    351.46726    809.09608     11984.15    2248.7452    14232.895    0.8777114 
  192500    352.68277    736.95812    12025.596    2020.4273    14046.023    0.8777114 
  192600     352.6925    919.35014    12025.928    2058.7881    14084.716    0.8777114 
  192700    354.65246    805.74872    12092.757    2157.3666    14250.124    0.8777114 
  192800     353.7967    894.06898    12063.578    2108.1153    14171.693    0.8777114 
  192900    349.05484    957.45933    11901.893    2083.5902    13985.483    0.8777114 
  193000    350.61431    728.07995    11955.067    2034.0604    13989.127    0.8777114 
  193100    354.76934    898.28549    12096.743    2084.5757    14181.318    0.8777114 
  193200     352.3414    875.88696    12013.956      2135.09    14149.046    0.8777114 
  193300    358.92862     950.0147    12238.564    2109.0829    14347.647    0.8777114 
  193400    356.35387    1019.1078    12150.771    2144.4246    14295.196    0.8777114 
  193500    353.77247    873.02194    12062.752    2214.4448    14277.197    0.8777114 
  193600    352.86073    779.75608    12031.664    2274.1189    14305.783    0.8777114 
  193700      355.772    852.06888    12130.931    2158.2413    14289.172    0.8777114 
  193800    350.60774    589.01298    11954.842     2194.213    14149.055    0.8777114 
  193900    355.04525     693.5016    12106.151    2297.1059    14403.256    0.8777114 
  194000    355.66513    769.94806    12127.287    2217.2986    14344.585    0.8777114 
  194100     354.8699      626.408    12100.171    2233.5683     14333.74    0.8777114 
  194200    352.53022    798.18191    12020.394    2331.5974    14351.992    0.8777114 
  194300    359.63527    832.17408    12262.659    2139.5186    14402.177    0.8777114 
  194400    351.99287    640.89545    12002.072    2359.4192    14361.491    0.8777114 
  194500    353.79124    960.93964    12063.392    2281.6193    14345.011    0.8777114 
  194600    358.19343     755.9162    12213.495    2221.5936    14435.089    0.8777114 
  194700    354.26593    942.64331    12079.578    2281.3291    14360.907    0.8777114 
  194800    355.88643    640.94408    12134.833    2233.7358    14368.568    0.8777114 
  194900    351.99417    730.47856    12002.116    2419.2109    14421.327    0.8777114 
  195000    352.13931    726.94198    12007.065    2385.8608    14392.926    0.8777114 
  195100    353.58594     784.2178    12056.392    2195.8866    14252.278    0.8777114 
  195200    349.31291    699.87525    11910.692    2105.2036    14015.896    0.8777114 
  195300    347.28601    671.29784     11841.58    2281.6546    14123.235    0.8777114 
  195400    354.55046    707.57975    12089.279     2291.616    14380.895    0.8777114 
  195500     351.8295    732.01311    11996.501    2228.5833    14225.085    0.8777114 
  195600    356.78259    926.81753    12165.389     2239.259    14404.648    0.8777114 
  195700    360.10793    873.45692    12278.775    2310.8666    14589.642    0.8777114 
  195800     353.1332    761.65437    12040.955    2346.2424    14387.197    0.8777114 
  195900    351.76995     806.6437    11994.471    2334.6898    14329.161    0.8777114 
  196000    353.90108    866.86189    12067.137    2324.7466    14391.884    0.8777114 
  196100    354.81022    878.71327    12098.137    2305.7486    14403.885    0.8777114 
  196200    357.70592    639.13653    12196.873    2167.6258    14364.499    0.8777114 
  196300    348.81911    697.70688    11893.855     2346.223    14240.078    0.8777114 
  196400    358.44976    814.62009    12222.236    2348.6826    14570.918    0.8777114 
  196500    352.90905      755.871    12033.311    2390.1647    14423.476    0.8777114 
  196600    355.28122      808.759    12114.196    2212.7687    14326.965    0.8777114 
  196700    353.02033    764.78003    12037.106    2414.7287    14451.834    0.8777114 
  196800    353.30778    862.99044    12046.907    2320.6551    14367.562    0.8777114 
  196900    350.67752    838.94047    11957.222    2455.6809    14412.903    0.8777114 
  197000    358.00646    779.51327     12207.12    2463.3855    14670.506    0.8777114 
  197100    357.38492    956.44471    12185.927    2351.2924     14537.22    0.8777114 
  197200    358.46986    773.98964    12222.921    2314.2577    14537.179    0.8777114 
  197300    357.74565     784.2943    12198.227    2425.0358    14623.263    0.8777114 
  197400    354.29932    878.16578    12080.716    2533.4726    14614.189    0.8777114 
  197500    354.68819    1033.9888    12093.976    2289.3788    14383.354    0.8777114 
  197600    353.53612     918.5351    12054.693     2367.832    14422.525    0.8777114 
  197700    354.77418    640.72917    12096.908    2425.3566    14522.264    0.8777114 
  197800    356.83378    803.38714    12167.135    2643.3433    14810.478    0.8777114 
  197900    362.53948    593.90479    12361.685    2367.4775    14729.162    0.8777114 
  198000    355.55682    716.60819    12123.594    2529.6324    14653.226    0.8777114 
  198100    358.89952     779.2298    12237.572    2361.1279    14598.699    0.8777114 
  198200    363.55792    684.95523    12396.411     2269.647    14666.058    0.8777114 
  198300    357.88077    756.38954    12202.835    2235.4339    14438.269    0.8777114 
  198400    362.00211    713.62962    12343.362    2204.9742    14548.336    0.8777114 
  198500    354.73434    827.71859    12095.549    2348.1814    14443.731    0.8777114 
  198600    352.42273    630.71214    12016.729    2364.9764    14381.705    0.8777114 
  198700    362.46699    593.40953    12359.213    2247.8755    14607.089    0.8777114 
  198800     360.9153    746.75406    12306.304    2348.2632    14654.568    0.8777114 
  198900    354.86216    920.90357    12099.908    2374.2539    14474.162    0.8777114 
  199000    353.83074     929.6379    12064.739    2281.0486    14345.787    0.8777114 
  199100    352.43821    781.45303    12017.257    2474.7702    14492.027    0.8777114 
  199200    359.15916    925.55058    12246.425    2231.2304    14477.655    0.8777114 
  199300    361.65475    965.00593    12331.518    2429.8577    14761.376    0.8777114 
  199400    358.90838    937.20128    12237.874    2394.8886    14632.762    0.8777114 
  199500    357.86901    733.84221    12202.434    2320.4477    14522.881    0.8777114 
  199600    355.44382    824.74843    12119.741    2165.0119    14284.753    0.8777114 
  199700    356.45119    849.91085    12154.089     2220.503    14374.592    0.8777114 
  199800    352.06228    833.19165    12004.439    2394.1858    14398.624    0.8777114 
  199900    350.56303    791.41739    11953.318    2351.9533    14305.271    0.8777114 
  200000    356.09959    773.31932    12142.101    2347.1482    14489.249    0.8777114 
  200100    360.28387    748.82369    12284.774    2394.1705    14678.945    0.8777114 
Loop time of 1748.36 on 12 procs for 100000 steps with 11440 atoms

Performance: 4.942 ns/day, 4.857 hours/ns, 57.196 timesteps/s
99.2% CPU use with 12 MPI tasks x 1 OpenMP threads

MPI task timing breakdown:
Section |  min time  |  avg time  |  max time  |%varavg| %total
---------------------------------------------------------------
Pair    | 1184.1     | 1223.1     | 1278.2     |  80.0 | 69.96
Bond    | 48.478     | 51.123     | 52.616     |  18.5 |  2.92
Kspace  | 375.68     | 428.97     | 461.07     | 123.7 | 24.54
Neigh   | 3.8007     | 3.8012     | 3.8016     |   0.0 |  0.22
Comm    | 19.548     | 28.017     | 37.617     | 105.4 |  1.60
Output  | 0.050267   | 0.067619   | 0.25596    |  21.8 |  0.00
Modify  | 7.9522     | 8.1751     | 8.299      |   4.6 |  0.47
Other   |            | 5.084      |            |       |  0.29

Nlocal:    953.333 ave 987 max 927 min
Histogram: 1 1 1 2 2 3 1 0 0 1
Nghost:    7630.33 ave 7667 max 7584 min
Histogram: 1 0 1 0 2 1 4 2 0 1
Neighs:    1.24165e+06 ave 1.28297e+06 max 1.20384e+06 min
Histogram: 1 2 0 2 2 1 2 0 1 1

Total # of neighbors = 14899823
Ave neighs/atom = 1302.43
Ave special neighs/atom = 8.27972
Neighbor list builds = 130
Dangerous builds = 0
System init for write_restart ...
Ewald initialization ...
WARNING: Using 12-bit tables for long-range coulomb (../kspace.cpp:321)
  G vector (1/distance) = 0.137558
  estimated absolute RMS force accuracy = 0.0423204
  estimated relative force accuracy = 0.000127447
  KSpace vectors: actual max1d max3d = 725 7 1687
                  kxmax kymax kzmax  = 6 6 7
Total wall time: 0:59:42
