LAMMPS (31 Mar 2017)
  using 1 OpenMP thread(s) per MPI task
Reading restart file ...
  restart file = 31 Mar 2017, LAMMPS = 31 Mar 2017
  orthogonal box = (0 0 0) to (81.6 70.667 100)
  4 by 3 by 1 MPI processor grid
  11440 atoms
  9984 bonds
  18176 angles
  19200 dihedrals
Finding 1-2 1-3 1-4 neighbors ...
  special bond factors lj:   0          0          0.5       
  special bond factors coul: 0          0          0.5       
  4 = max # of 1-2 neighbors
  6 = max # of 1-3 neighbors
  12 = max # of 1-4 neighbors
  14 = max # of special neighbors
1200 atoms in group gold
10240 atoms in group dynamic
Finding SHAKE clusters ...
  0 = # of size 2 clusters
  2560 = # of size 3 clusters
  256 = # of size 4 clusters
  0 = # of frozen angles
Resetting global fix info from restart file:
  fix style: nvt, fix ID: 0
Ewald initialization ...
WARNING: Using 12-bit tables for long-range coulomb (../kspace.cpp:321)
  G vector (1/distance) = 0.137558
  estimated absolute RMS force accuracy = 0.0423204
  estimated relative force accuracy = 0.000127447
  KSpace vectors: actual max1d max3d = 725 7 1687
                  kxmax kymax kzmax  = 6 6 7
All restart file global fix info was re-assigned
Neighbor list info ...
  update every 1 steps, delay 0 steps, check yes
  max neighbors/atom: 30000, page size: 300000
  master list distance cutoff = 22
  ghost atom cutoff = 22
  binsize = 11, bins = 8 7 10
  3 neighbor lists, perpetual/occasional/extra = 3 0 0
  (1) pair lj/cut/coul/long, perpetual, skip from (3)
      attributes: half, newton on
      pair build: skip
      stencil: none
      bin: none
  (2) pair morse, perpetual, skip from (3)
      attributes: half, newton on
      pair build: skip
      stencil: none
      bin: none
  (3) neighbor class addition, perpetual
      attributes: half, newton on
      pair build: half/bin/newton
      stencil: half/bin/3d/newton
      bin: standard
Setting up Verlet run ...
  Unit style    : real
  Current step  : 20200100
  Time step     : 1
Per MPI rank memory allocation (min/avg/max) = 36.57 | 36.58 | 36.58 Mbytes
Step Temp Density TotEng KinEng PotEng E_bond E_angle E_dihed E_impro E_vdwl E_coul E_long Volume Enthalpy 
20200100    260.14915    0.8777114    5189.3488     7348.472   -2159.1232    1336.7244    5038.2392    778.17307            0   -11472.863    7599.4425   -5438.8397    576642.72    4357.8857 
20200200    261.30083    0.8777114    5091.4727    7381.0038   -2289.5311     1372.995    4973.3184    762.55596            0   -11536.227    7579.5789   -5441.7525    576642.72     4600.956 
20200300    262.05015    0.8777114    5021.1606    7402.1697   -2381.0091    1359.6218    4940.4837    768.54069            0   -11565.648    7559.3362   -5443.3432    576642.72    4242.3373 
20200400    262.56295    0.8777114    5010.0113    7416.6549   -2406.6436    1335.3369    4932.2329     762.5738            0   -11538.227    7547.3368   -5445.8965    576642.72    4001.5324 
20200500    261.78427    0.8777114    4988.8209    7394.6595   -2405.8387    1337.1491    4893.0493    755.29224            0   -11523.374    7576.7066    -5444.662    576642.72    4634.1379 
20200600    259.53232    0.8777114    4909.6457    7331.0484   -2421.4026     1296.226    4897.5629    773.14419            0     -11499.7    7554.4088    -5443.045    576642.72    4175.9499 
20200700    259.09018    0.8777114     4831.006    7318.5592   -2487.5532    1267.3053      4889.21    743.28826            0   -11500.417    7561.7611   -5448.7004    576642.72    3337.9764 
20200800     263.6278    0.8777114     4950.139    7446.7339   -2496.5949    1328.2842    4773.6495    755.64442            0   -11475.394    7564.6974   -5443.4764    576642.72    4071.3884 
20200900    261.30478    0.8777114    5072.0817    7381.1152   -2309.0334    1323.3492    4922.8432    772.58797            0   -11451.078    7571.6285   -5448.3648    576642.72    4148.4742 
20201000    264.30139    0.8777114    5100.4071    7465.7609   -2365.3538    1345.5325    4920.5152    783.77442            0   -11524.717     7557.194   -5447.6526    576642.72    4089.6334 
20201100    261.37727    0.8777114    5086.8737    7383.1627   -2296.2891    1296.5762    5018.6183    767.42217            0   -11510.777    7573.9524   -5442.0809    576642.72    4668.0661 
20201200    263.62575    0.8777114    4982.9095     7446.676   -2463.7665    1311.3997    4886.0744    766.84023            0   -11560.989     7576.165   -5443.2565    576642.72    4391.5949 
20201300    258.63987    0.8777114    4855.1658    7305.8391   -2450.6733     1330.437    4891.7844    781.28243            0   -11567.896    7560.1537   -5446.4344    576642.72    3042.3505 
20201400    258.74474    0.8777114    4909.2155    7308.8013   -2399.5858    1339.3354    4906.0432    782.22431            0   -11550.134    7569.5649   -5446.6193    576642.72    3819.6794 
20201500    263.14174    0.8777114    5045.9559     7433.004    -2387.048    1338.2875     4892.407    794.27525            0   -11531.782     7562.234   -5442.4697    576642.72    4404.1487 
20201600    262.25933    0.8777114    5066.3821    7408.0787   -2341.6966    1338.9362     4903.973    767.90058            0   -11505.232    7590.0193   -5437.2934    576642.72    5050.3856 
20201700    261.48341    0.8777114    5054.5615    7386.1611   -2331.5997    1324.7745     4929.021    785.21598            0   -11517.476    7586.6637   -5439.7987    576642.72     4278.577 
20201800    261.78112    0.8777114    5067.4981    7394.5703   -2327.0722    1353.4825      4901.37      807.045            0   -11529.285    7580.5194   -5440.2038    576642.72    4176.2145 
20201900    264.64217    0.8777114    5110.1507    7475.3869   -2365.2362    1365.9456    4926.3303    770.29221            0   -11579.788    7589.2983   -5437.3149    576642.72    3638.3891 
20202000    261.33413    0.8777114    5114.1314    7381.9444    -2267.813    1386.0558    4888.7753    792.99104            0   -11469.204    7575.9658   -5442.3966    576642.72    4204.3407 
20202100    264.66591    0.8777114    5050.8378    7476.0574   -2425.2196    1304.0235    4914.3462    748.91828            0   -11517.852    7569.3649   -5444.0205    576642.72      4621.16 
20202200    258.92055    0.8777114    4943.0699    7313.7675   -2370.6975    1347.7098    4915.9609    775.00905            0   -11538.073    7567.1399   -5438.4441    576642.72    3231.4394 
20202300    262.59213    0.8777114    4946.9145    7417.4792   -2470.5647    1277.0244    4901.8244    763.74539            0   -11546.841    7574.7088    -5441.027    576642.72    4542.0844 
20202400    263.98207    0.8777114    5083.2268    7456.7411   -2373.5143    1312.1689    4933.1847    765.46848            0   -11529.148    7587.4718   -5442.6607    576642.72    5189.7609 
20202500    266.93723    0.8777114    5209.2795     7540.216   -2330.9366    1309.3198    4938.7294    791.24988            0   -11515.991    7584.3448   -5438.5897    576642.72    5209.7085 
20202600    262.69855    0.8777114    5163.8506    7420.4852   -2256.6345    1343.3573    4991.7611    792.08437            0   -11533.333    7586.7749   -5437.2796    576642.72    5019.9384 
20202700    261.16758    0.8777114    5061.6691    7377.2398   -2315.5707    1295.9988    4930.3064    770.31361            0   -11476.174      7602.77   -5438.7856    576642.72    4660.0651 
20202800     260.0008    0.8777114    5020.0147    7344.2816   -2324.2669    1319.3042     4918.106    753.46489            0   -11471.228    7594.4374   -5438.3515    576642.72    4122.1774 
20202900    260.76336    0.8777114    5052.3996    7365.8216    -2313.422    1307.0688    4975.6952    740.47697            0   -11492.553    7598.5163   -5442.6261    576642.72    4097.2937 
20203000    261.74085    0.8777114    5066.9475    7393.4328   -2326.4853    1257.7385    5039.0077    751.42904            0   -11523.262    7591.4258   -5442.8242    576642.72     4165.874 
20203100    265.67184    0.8777114    5082.5134    7504.4724   -2421.9589    1308.2011    4887.0739    749.28202            0    -11514.32    7586.9587   -5439.1552    576642.72    4824.9363 
20203200    265.37552    0.8777114    5094.6269     7496.102   -2401.4752    1328.8637    4872.4675    764.93051            0   -11505.197    7579.1411   -5441.6808    576642.72    4385.4708 
20203300     263.5502    0.8777114     5100.349    7444.5418   -2344.1928    1371.7343    4881.4042    742.38662            0   -11476.765     7579.943   -5442.8958    576642.72    3333.8702 
20203400    258.72623    0.8777114      4991.02    7308.2787   -2317.2587    1300.8722    4945.1715    785.48246            0    -11488.24    7583.9101   -5444.4553    576642.72    3513.5697 
20203500    263.54119    0.8777114    4967.8991    7444.2875   -2476.3884    1298.6398    4840.9914     765.4125            0   -11506.508    7569.4527   -5444.3767    576642.72    4756.6199 
20203600    264.47058    0.8777114     5039.999    7470.5401   -2430.5411    1301.9993    4884.8649    755.55551            0   -11519.875    7590.3992   -5443.4847    576642.72    4194.5845 
20203700    265.90599    0.8777114    5162.5877    7511.0864   -2348.4986     1308.938     4941.216    766.63893            0   -11522.624    7597.5082   -5440.1757    576642.72    4028.9772 
20203800    264.91841    0.8777114    5168.1111      7483.19   -2315.0789    1315.3635    4946.6663    780.28684            0   -11482.349    7569.2596   -5444.3065    576642.72    3924.1578 
20203900    259.88631    0.8777114    4964.6775    7341.0476   -2376.3701      1332.63    4930.5864    744.69575            0   -11527.875    7584.8976   -5441.3053    576642.72    3568.8074 
20204000    262.25205    0.8777114    4910.1097    7407.8729   -2497.7632    1312.1885    4820.5911    737.63252            0   -11501.594    7576.3126   -5442.8945    576642.72     3597.389 
20204100    263.78302    0.8777114    4970.1051    7451.1185   -2481.0134    1321.0684    4887.3589    769.71694            0   -11573.057    7559.3278   -5445.4282    576642.72    3928.3408 
20204200    261.63093    0.8777114    5070.7294    7390.3281   -2319.5987     1360.548    4959.0828    773.77108            0   -11538.594    7566.2738   -5440.6807    576642.72    4477.2829 
20204300    263.17099    0.8777114    5117.4027    7433.8303   -2316.4276    1307.6611    4917.2755    766.42628            0   -11434.745    7564.5362   -5437.5816    576642.72    5123.2821 
20204400     263.3984    0.8777114    5140.0667    7440.2541   -2300.1873    1322.0747    4954.1643    780.20534            0   -11483.555    7571.2826   -5444.3597    576642.72    4985.9111 
20204500    261.24737    0.8777114    5066.0668    7379.4935   -2313.4267    1287.4256    5012.5103     789.2748            0   -11519.902    7562.9833   -5445.7186    576642.72    4370.2278 
20204600    263.44209    0.8777114    4968.2773    7441.4882    -2473.211    1316.3041    4859.6121     781.6628            0   -11549.035    7563.5788   -5445.3338    576642.72    4304.7366 
20204700    259.74019    0.8777114    4910.8076    7336.9199   -2426.1123    1314.7121    4982.8805    781.96724            0   -11602.526    7543.6441   -5446.7907    576642.72    2928.4182 
20204800    259.77541    0.8777114     4988.915    7337.9147   -2348.9997    1341.4253    4935.4489    767.46274            0   -11514.623    7566.5763   -5445.2902    576642.72    4547.8635 
20204900    261.06432    0.8777114    5142.3495     7374.323   -2231.9735    1321.1442    5047.1277    762.16696            0   -11504.718    7584.1853   -5441.8802    576642.72    5456.9154 
20205000    265.05472    0.8777114    5133.8391    7487.0404   -2353.2013     1336.071    4946.4613    777.82533            0   -11544.282    7574.7121   -5443.9888    576642.72    4488.0001 
20205100    260.36864    0.8777114    5061.3315    7354.6718   -2293.3404    1352.5547    4952.2186     754.4722            0   -11483.533    7573.8772   -5442.9299    576642.72    4024.7775 
20205200    260.24483    0.8777114    5008.2451    7351.1746   -2342.9295    1310.1808    4897.7428    772.95644            0   -11486.946    7603.5736   -5440.4369    576642.72    4638.6578 
20205300    264.74549    0.8777114    5022.0489    7478.3056   -2456.2567    1307.9283     4910.499    759.85562            0    -11589.25    7595.8061   -5441.0958    576642.72     3237.518 
20205400    263.40231    0.8777114    5010.3836    7440.3645   -2429.9809    1341.5871    4872.3436    764.99079            0   -11551.536    7586.5259   -5443.8918    576642.72    3103.6318 
20205500    262.10154    0.8777114    5036.5702    7403.6214   -2367.0513    1317.8915    4929.3151    758.47443            0   -11492.399    7564.6553   -5444.9887    576642.72    3874.5686 
20205600     262.9925    0.8777114    5159.6727    7428.7886   -2269.1159    1353.8007    5000.6488    795.46156            0   -11557.282    7581.0626    -5442.808    576642.72    4238.1576 
20205700    265.87451    0.8777114    5237.8776    7510.1972   -2272.3196    1314.6527    4983.0357    791.86567            0   -11501.482    7584.1157   -5444.5077    576642.72    4059.2746 
20205800    261.16338    0.8777114     5108.558    7377.1211    -2268.563     1286.225    5005.8905    767.84717            0   -11474.028    7589.9308   -5444.4285    576642.72    4459.0433 
20205900    259.05301    0.8777114    4990.6109    7317.5091   -2326.8982    1315.7395    4975.1043    771.66375            0   -11531.637    7584.7794   -5442.5481    576642.72    3468.2786 
20206000    265.23744    0.8777114     5029.701    7492.2018   -2462.5007    1285.2269    4915.4876    761.08604            0   -11582.048    7599.1633   -5441.4169    576642.72    4554.2211 
20206100    260.61148    0.8777114    5086.3404    7361.5314   -2275.1911    1306.6818    4996.8259    805.68628            0   -11535.802    7596.6781   -5445.2611    576642.72     5463.887 
20206200    264.16709    0.8777114    5234.5919    7461.9675   -2227.3755     1340.638    5018.7205    760.04962            0    -11492.87    7586.1062   -5440.0201    576642.72    4694.4279 
20206300    264.42282    0.8777114    5235.9626     7469.191   -2233.2284    1356.8864    5009.8462    776.63263            0    -11527.09    7593.9634   -5443.4668    576642.72    4845.1577 
20206400    263.61997    0.8777114     5008.352    7446.5127   -2438.1607    1319.4827    4908.3893     755.9733            0   -11551.965    7576.6518   -5446.6932    576642.72    3485.7396 
20206500    261.07469    0.8777114     4966.674    7374.6158   -2407.9418    1302.7447    4938.7592    759.31082            0   -11530.623    7569.0037   -5447.1371    576642.72    4204.5596 
20206600     260.8458    0.8777114      5006.28    7368.1503   -2361.8704    1302.6528    4965.6177    765.72055            0   -11526.903    7575.7612   -5444.7194    576642.72    4994.0395 
20206700     263.1984    0.8777114    5117.1046    7434.6046      -2317.5     1374.196    4970.8886    762.96349            0   -11570.808    7587.9607    -5442.701    576642.72    4540.8746 
20206800    263.68992    0.8777114    5156.0292    7448.4886   -2292.4594     1377.118    4906.7837    778.48797            0   -11507.434    7592.9198   -5440.3349    576642.72    5335.7597 
20206900    259.85551    0.8777114    5050.0855    7340.1775    -2290.092    1315.2232    4987.5006    776.04561            0   -11538.123    7609.9646    -5440.703    576642.72    4947.9207 
20207000    261.55656    0.8777114    4923.9193    7388.2274    -2464.308    1286.2245    4893.8242    765.42593            0   -11574.786    7601.0222   -5436.0186    576642.72    3443.8449 
20207100    263.32884    0.8777114    4959.6126    7438.2893   -2478.6766    1306.1359    4898.3735     743.7422            0    -11582.57     7594.059   -5438.4171    576642.72    4071.2857 
20207200    258.37252    0.8777114    5038.9535    7298.2872   -2259.3337    1350.9516     4997.908    775.10727            0   -11532.257    7591.6287   -5442.6718    576642.72    3659.5803 
20207300    263.17659    0.8777114     5084.354    7433.9886   -2349.6346    1336.5727    4928.4593    746.69975            0   -11511.349    7589.2527   -5439.2695    576642.72    4516.8528 
20207400     261.5186    0.8777114    5076.4582     7387.155   -2310.6968    1230.0231     5033.085    769.68031            0   -11477.004    7577.2422   -5443.7233    576642.72    5237.5744 
20207500    261.58843    0.8777114      5066.37    7389.1275   -2322.7575     1307.111     5034.303     724.8077            0    -11517.72    7575.0783   -5446.3372    576642.72    4733.6932 
20207600    260.45115    0.8777114    4918.2514    7357.0026   -2438.7512    1303.4237    4900.1436    765.68334            0   -11505.195    7546.5795   -5449.3869    576642.72    4744.0938 
20207700    256.81097    0.8777114    4832.3982    7254.1779   -2421.7797     1345.632    4885.2969    771.81316            0   -11557.702    7581.3805   -5448.1999    576642.72    3747.0556 
20207800    261.53893    0.8777114    4952.9592    7387.7294   -2434.7702    1323.1058    4882.8514    772.62994            0   -11542.563      7576.15   -5446.9446    576642.72    4123.9732 
20207900    266.97198    0.8777114    5040.6506    7541.1976    -2500.547    1322.7081     4856.698    772.52235            0   -11561.635    7555.6884   -5446.5289    576642.72    3736.4125 
20208000     262.7179    0.8777114    5050.4668    7421.0319   -2370.5651    1314.6556    4949.5765    764.99607            0   -11514.503    7561.9699     -5447.26    576642.72    4322.9427 
20208100    262.85848    0.8777114    5049.5829    7425.0027   -2375.4198    1303.0242    4913.7445    790.21193            0   -11491.512    7556.6339   -5447.5226    576642.72    3512.0502 
20208200     262.2012    0.8777114    5030.9364    7406.4365   -2375.5001    1317.2746    4956.0433    775.70628            0   -11518.584    7541.4281   -5447.3685    576642.72    4207.5456 
20208300    262.09511    0.8777114    5002.3344    7403.4399   -2401.1054    1332.0435     4876.857    779.01657            0   -11491.242    7549.4356   -5447.2164    576642.72    4451.1957 
20208400     260.7802    0.8777114    4963.0015    7366.2974   -2403.2959     1361.317    4895.1568    790.88573            0   -11572.993    7565.7955   -5443.4581    576642.72     3386.961 
20208500    257.56104    0.8777114    4917.8463    7275.3651   -2357.5188     1286.254    4942.4869    784.50584            0   -11485.757    7562.9145   -5447.9232    576642.72    4925.2255 
20208600    261.41631    0.8777114    5035.1253    7384.2656   -2349.1403     1365.256    4962.8318    767.05478            0       -11572    7574.1977    -5446.481    576642.72    3221.6244 
20208700    264.53886    0.8777114    5152.2193    7472.4689   -2320.2496    1313.2488    5016.2006    753.62809            0   -11545.307    7587.4001   -5445.4205    576642.72     4363.032 
20208800    262.45646    0.8777114    5123.9711    7413.6469   -2289.6758    1279.5592     4996.165    792.68217            0   -11491.513    7581.6965   -5448.2661    576642.72    5000.2903 
20208900    260.33331    0.8777114    5056.7198    7353.6739   -2296.9541    1334.7663    5033.8087    792.18636            0   -11566.676    7563.1122   -5454.1519    576642.72    3670.5659 
20209000    263.52652    0.8777114    5013.7182    7443.8729   -2430.1548    1259.1326    4987.5486    779.58435            0   -11555.751    7553.7332   -5454.4025    576642.72    4786.9463 
20209100    261.72578    0.8777114    5021.2984    7393.0073   -2371.7089    1331.9544    4955.9461    738.81605            0   -11528.358    7577.6181   -5447.6857    576642.72    4644.6926 
20209200    260.90027    0.8777114     5066.929     7369.689     -2302.76    1352.7333    4982.8268    767.68512            0   -11563.116    7598.7424   -5441.6322    576642.72    4085.8244 
20209300    262.94611    0.8777114    5121.3258    7427.4782   -2306.1524    1300.6444    5048.6789    769.65018            0   -11562.407    7576.6966   -5439.4158    576642.72     4434.412 
20209400    260.71546    0.8777114    5111.6478    7364.4687   -2252.8209    1330.3224    5034.5885    770.54502            0    -11527.16    7578.3459   -5439.4623    576642.72    3823.0385 
20209500    264.42835    0.8777114    5012.1755    7469.3473   -2457.1717    1262.8519    4933.1842    756.39725            0    -11526.45    7566.5314   -5449.6869    576642.72    5266.1214 
20209600    258.72522    0.8777114    4876.6995      7308.25   -2431.5505    1325.9245    4894.6402    769.65448            0   -11542.759    7565.5343   -5444.5446    576642.72    3595.1261 
20209700    260.81944    0.8777114    4901.3504    7367.4057   -2466.0553    1332.6568    4839.6357    774.32319            0    -11538.35     7567.763   -5442.0838    576642.72    3469.0711 
20209800    261.07292    0.8777114    5040.7751    7374.5658   -2333.7908    1341.3552    4996.3043    771.42795            0   -11566.721      7566.19   -5442.3475    576642.72     4561.569 
20209900    262.12498    0.8777114    5083.7313    7404.2835   -2320.5523    1336.9528    5032.7166    741.26306            0   -11558.279    7569.7962   -5443.0015    576642.72    4766.3707 
20210000    262.94985    0.8777114    5067.9516    7427.5836    -2359.632    1345.1098    4865.6351    778.34208            0   -11498.861    7592.8635    -5442.722    576642.72    4661.0605 
20210100    261.60397    0.8777114    5042.7108    7389.5665   -2346.8557    1335.4344    4957.3493    768.28137            0   -11531.619     7567.291   -5443.5927    576642.72    3749.3636 
20210200    261.46902    0.8777114    5001.7647    7385.7546   -2383.9899    1313.7578    4920.6888    770.06964            0    -11511.93    7566.5303   -5443.1068    576642.72    4745.0836 
20210300    258.64732    0.8777114    4971.7267    7306.0494   -2334.3227    1320.0031    4975.2652    775.39155            0   -11555.903    7587.3577   -5436.4372    576642.72    4122.3676 
20210400    262.21886    0.8777114     5072.694    7406.9354   -2334.2414    1330.0839    4930.4647    759.79422            0   -11499.669    7581.3659   -5436.2807    576642.72     4881.775 
20210500    265.62756    0.8777114    5176.0907    7503.2214   -2327.1306    1322.4275    4960.1988    793.90678            0   -11538.755    7574.9669   -5439.8755    576642.72         4276 
20210600    261.79378    0.8777114    5167.6372    7394.9282    -2227.291    1339.6818    5029.2094    783.59922            0   -11518.385    7581.0481   -5442.4442    576642.72     5030.358 
20210700    263.12767    0.8777114    5028.6977    7432.6067    -2403.909    1275.5085    4976.2721    764.30401            0   -11551.958    7576.7934   -5444.8293    576642.72    5724.5065 
20210800    262.17979    0.8777114    4914.6726    7405.8317   -2491.1592    1308.6349    4921.3716    775.80896            0   -11622.787    7572.8425   -5447.0305    576642.72    4419.7039 
20210900    260.69513    0.8777114    4974.2789    7363.8944   -2389.6154    1336.4828    4926.9842    777.15452            0   -11546.416    7564.1143   -5447.9353    576642.72    4342.9406 
20211000    262.52482    0.8777114    5064.3067     7415.578   -2351.2712    1311.6739    4984.9107    789.10668            0   -11563.038    7570.5018   -5444.4264    576642.72    3869.4968 
20211100    262.13118    0.8777114    5123.2155    7404.4586   -2281.2432    1382.4207    4976.8594    775.87965            0   -11539.977    7567.9102   -5444.3364    576642.72    3794.6725 
20211200    260.26067    0.8777114    5180.4726    7351.6221   -2171.1495    1376.5826    5047.8183    758.69206            0   -11492.578    7577.2289   -5438.8936    576642.72    3852.7384 
20211300    267.75615    0.8777114    5270.2559    7563.3481   -2293.0922    1359.2795    4909.2618    776.17141            0    -11491.26    7585.0154   -5431.5607    576642.72    4946.1454 
20211400    261.62707    0.8777114    5159.1647    7390.2191   -2231.0544    1379.2617    5008.0568    787.85283            0   -11538.121    7564.8129   -5432.9172    576642.72    3591.6614 
20211500     259.8675    0.8777114    5039.6882    7340.5163   -2300.8281    1393.5514    4926.3362    779.36393            0   -11515.303    7555.9794   -5440.7563    576642.72    3669.6918 
20211600    259.95338    0.8777114    5068.3375    7342.9422   -2274.6047    1356.3961    4967.6376    775.39464            0    -11492.79     7561.266   -5442.5089    576642.72    4387.7288 
20211700    261.40328    0.8777114    5145.5177    7383.8977     -2238.38     1375.366    5061.4205    763.82284            0   -11566.313    7571.9577   -5444.6341    576642.72    3436.8526 
20211800    265.74304    0.8777114    5279.6958    7506.4835   -2226.7876    1336.2826    5078.4994    792.96855            0    -11550.96    7562.0739   -5445.6521    576642.72    3748.4157 
20211900    264.10089    0.8777114    5314.7086    7460.0974   -2145.3888    1386.4267    5056.2624    781.01054            0   -11502.867    7579.4921   -5445.7131    576642.72    4203.9331 
20212000    262.47522    0.8777114    5110.3882    7414.1769   -2303.7888    1373.4877    4966.8313    754.65867            0   -11534.872    7578.5365   -5442.4308    576642.72    3500.1991 
20212100    262.18626    0.8777114    5028.7893    7406.0146   -2377.2253    1283.7747    4967.3786     772.7269            0   -11516.781    7560.7469   -5445.0715    576642.72    4241.2798 
20212200    260.89668    0.8777114    5026.9348    7369.5875   -2342.6526    1342.6649    5032.5149    719.96483            0   -11562.476    7566.7174   -5442.0384    576642.72    4354.9547 
20212300    262.73621    0.8777114    5051.8315    7421.5489   -2369.7174    1349.1501    4935.2122    739.83194            0   -11501.637     7550.264   -5442.5382    576642.72    3752.6949 
20212400    267.85097    0.8777114     5182.874    7566.0264   -2383.1523    1309.7302      4918.53    746.05127            0   -11489.159    7568.8922   -5437.1975    576642.72    4777.7372 
20212500    267.77315    0.8777114    5228.2535    7563.8281   -2335.5746    1331.6011    4948.5173    768.48201            0   -11495.494    7550.3205    -5439.002    576642.72    3999.8243 
20212600    263.41637    0.8777114     5078.237    7440.7617   -2362.5247    1297.6489    4977.0137    779.12972            0   -11525.235     7555.343   -5446.4247    576642.72    4419.7289 
20212700     259.9428    0.8777114    4958.1689    7342.6432   -2384.4743    1309.0197    4979.5289    771.26581            0   -11525.313    7530.3653   -5449.3406    576642.72    4387.2741 
20212800    260.78413    0.8777114     5003.156    7366.4082   -2363.2523    1323.4701     4968.892    770.74384            0   -11535.053    7555.4299   -5446.7353    576642.72    4654.4587 
20212900      261.075    0.8777114     5090.558    7374.6245   -2284.0665    1329.3432    5038.4406    750.80314            0   -11507.713    7550.8181   -5445.7585    576642.72    4862.7532 
20213000    265.27306    0.8777114    5146.9512    7493.2077   -2346.2566    1352.7073    4969.7738    760.57132            0   -11526.048    7543.2832   -5446.5445    576642.72    3804.4689 
20213100    262.14199    0.8777114    5128.4624    7404.7641   -2276.3017    1323.8562    4982.1642    769.98705            0   -11462.499    7560.8077   -5450.6175    576642.72    5260.4976 
20213200    257.96926    0.8777114    4952.7562    7286.8964   -2334.1403    1309.3958    4936.2172    787.98902            0   -11480.422    7561.0629   -5448.3835    576642.72    4767.7093 
20213300    262.71754    0.8777114    4915.1034    7421.0215   -2505.9182     1278.934    4861.2921    764.58376            0   -11526.828     7561.493   -5445.3934    576642.72    4850.5182 
20213400    260.66841    0.8777114    4962.4566    7363.1396    -2400.683    1288.8757    4999.9707    770.29832            0   -11560.273    7549.4131   -5448.9676    576642.72    4722.7537 
20213500     261.8106    0.8777114     5114.055    7395.4033   -2281.3482    1356.9465    5064.3333    766.93954            0   -11568.086    7550.0431   -5451.5251    576642.72    3828.3572 
20213600    263.70212    0.8777114     5163.475    7448.8332   -2285.3582    1340.8725    5014.1785    796.29785            0   -11540.583    7551.6727    -5447.797    576642.72    3763.1413 
20213700    264.46208    0.8777114    5143.3188    7470.2999    -2326.981    1360.8523    4946.4565    766.67273            0   -11517.707    7561.5282   -5444.7842    576642.72     3121.654 
20213800    258.00011    0.8777114    5084.9525    7287.7678   -2202.8153     1381.016    4985.7517    769.79864            0   -11458.065    7560.5945   -5441.9111    576642.72    4029.1222 
20213900     259.2933    0.8777114    5045.4158    7324.2967   -2278.8808    1382.6667    4957.0211    783.67534            0   -11533.298    7574.8139     -5443.76    576642.72    3710.7385 
20214000    259.68424    0.8777114    5049.1441    7335.3397   -2286.1957    1353.8265    4979.8892     777.3393            0   -11531.839    7576.7949   -5442.2065    576642.72    4146.5679 
20214100    262.56092    0.8777114    5024.9614    7416.5975   -2391.6361    1309.8105    5003.1036    795.93376            0   -11593.769    7541.2888   -5448.0038    576642.72    4152.5333 
20214200    261.64055    0.8777114    4999.0893    7390.5999   -2391.5106    1280.7493    5005.0507    787.34026            0    -11537.38    7527.0192     -5454.29    576642.72    4808.0218 
20214300    260.68537    0.8777114    5044.0775    7363.6186   -2319.5411    1323.8272    4975.1165    796.14051            0   -11513.461     7553.596   -5454.7603    576642.72    5844.0652 
20214400    262.98254    0.8777114    5176.7128     7428.507   -2251.7942    1373.4087    5027.5411    791.36336            0   -11556.185     7561.456   -5449.3783    576642.72    4218.9343 
20214500    265.41204    0.8777114    5156.0777    7497.1335   -2341.0557    1333.1322    4989.0893    775.07098            0   -11528.699    7544.1174   -5453.7663    576642.72    4882.2654 
20214600    261.35468    0.8777114    4976.0747    7382.5249   -2406.4501    1337.3102    4932.4727    774.45443            0   -11535.113    7542.2054   -5457.7795    576642.72    4225.8122 
20214700    259.11551    0.8777114    4957.3749    7319.2745   -2361.8996    1333.7161    4958.0246    781.31119            0   -11525.379    7548.3845   -5457.9571    576642.72    3805.8857 
20214800    263.32534    0.8777114    5020.4836    7438.1903   -2417.7067    1327.2463    4949.8171    767.65625            0   -11554.587    7548.8515   -5456.6913    576642.72    3429.7567 
20214900    264.71621    0.8777114    5090.2346    7477.4783   -2387.2437    1335.1611     4898.259    767.63662            0   -11474.982    7545.5529   -5458.8718    576642.72    5222.2188 
20215000    264.80941    0.8777114    5194.0906     7480.111   -2286.0204    1318.7979    5108.8824    764.68695            0   -11579.772    7557.8014    -5456.417    576642.72    5466.9842 
20215100    266.04869    0.8777114    5222.8024    7515.1172   -2292.3148    1322.2963    5057.3636     766.0527            0   -11555.785    7572.7155    -5454.958    576642.72    5288.1607 
20215200    262.61954    0.8777114    5045.0474    7418.2535   -2373.2061    1316.2107    4972.0781     767.3986            0   -11556.736    7582.5332   -5454.6913    576642.72      5442.06 
20215300    263.41595    0.8777114    4987.1114    7440.7499   -2453.6385    1313.2635    4910.7521    768.59699            0     -11565.3    7570.5877   -5451.5389    576642.72    4404.8868 
20215400    261.66622    0.8777114    5036.2832    7391.3248   -2355.0416     1344.466    4946.1757    776.72981            0   -11531.832    7559.5834   -5450.1648    576642.72     4549.213 
20215500    263.63889    0.8777114    5152.8956    7447.0472   -2294.1517    1363.8684    4950.8767    781.66017            0   -11498.263    7559.1034   -5451.3976    576642.72    4271.5814 
20215600    262.04113    0.8777114    5148.7455    7401.9151   -2253.1696    1369.9875    4995.3948    780.71955            0   -11492.229    7548.2869   -5455.3292    576642.72     4337.092 
20215700    260.70995    0.8777114    4965.9873     7364.313   -2398.3256    1335.3131    4946.6387    774.74197            0   -11565.087    7562.0595   -5451.9924    576642.72     3669.014 
20215800    257.84558    0.8777114    4879.5911    7283.4027   -2403.8116    1279.6774    4984.9209     781.2071            0    -11564.44    7566.0844    -5451.261    576642.72    4001.4964 
20215900    264.29107    0.8777114    4978.1471    7465.4695   -2487.3224     1312.971    4911.5047    746.90322            0   -11578.215    7570.7158   -5451.2022    576642.72    5095.3861 
20216000     265.2368    0.8777114    5058.3885    7492.1835   -2433.7949    1308.3762    4953.8174    769.88924            0   -11570.248    7560.1522   -5455.7815    576642.72    4499.6675 
20216100    263.24484    0.8777114    5094.9309    7435.9165   -2340.9856    1377.8215    4991.5215    755.05133            0    -11582.83    7569.3318   -5451.8819    576642.72    4590.9171 
20216200    262.39965    0.8777114    4999.8062    7412.0421    -2412.236    1337.9321    4942.2979    751.87526            0   -11563.064    7571.4841   -5452.7615    576642.72    4765.3442 
20216300    258.55172    0.8777114    4844.9655    7303.3492   -2458.3837    1320.4899    4882.3721    752.71797            0   -11501.192    7544.5721   -5457.3434    576642.72    4616.5264 
20216400    258.66446    0.8777114    4900.8175    7306.5338   -2405.7162    1386.5772    4882.6431    802.95263            0   -11573.712    7551.8125   -5455.9899    576642.72    3201.6188 
20216500    260.79079    0.8777114     5003.609    7366.5965   -2362.9875     1347.889    4961.3907    745.84104            0   -11518.586    7555.4356   -5454.9581    576642.72    4591.9573 
20216600    259.20646    0.8777114    5038.3628    7321.8435   -2283.4807    1379.0672    4996.5465    756.27167            0   -11538.942    7574.1157   -5450.5396    576642.72    3845.7349 
20216700    261.11028    0.8777114    5038.3473    7375.6212   -2337.2738     1370.449    4920.0926    745.74456            0   -11503.361    7578.5394   -5448.7387    576642.72    4880.4448 
20216800    261.55754    0.8777114    5028.6185    7388.2549   -2359.6365    1352.7326    4979.7392    769.89637            0   -11572.909    7561.9446   -5451.0399    576642.72    4593.5476 
20216900    260.69549    0.8777114    5049.0284    7363.9046   -2314.8763    1352.3993    4995.9718    783.40549            0   -11546.254    7553.1642   -5453.5628    576642.72    4307.3233 
20217000      267.286    0.8777114    5120.9454    7550.0676   -2429.1222    1316.8828    4896.6991    792.22804            0   -11532.494    7549.7616   -5452.2001    576642.72    3516.6463 
20217100    264.09153    0.8777114    5124.3223     7459.833   -2335.5108    1315.2035    4967.7906    783.26464            0   -11542.616    7585.8807   -5445.0344    576642.72    4549.3057 
20217200    259.12349    0.8777114    5032.0458       7319.5   -2287.4542    1291.2623    5018.0326    779.83214            0   -11533.973    7598.9838   -5441.5918    576642.72    4999.8391 
20217300    259.01833    0.8777114    4933.4535    7316.5296   -2383.0761    1349.6974    4867.5598    774.18557            0   -11506.391    7581.5181   -5449.6464    576642.72    4953.7467 
20217400    261.50778    0.8777114     4953.873    7386.8495   -2432.9765    1313.3784    4902.6908    761.87632            0   -11510.773    7549.1587   -5449.3075    576642.72    4410.2191 
20217500    262.40268    0.8777114    5144.1459    7412.1278    -2267.982    1351.0703    4995.3876    802.99181            0   -11505.426    7538.0148   -5450.0204    576642.72    5138.6746 
20217600    262.19434    0.8777114     5167.348    7406.2428   -2238.8948     1366.855    5075.8345    778.44065            0    -11568.47    7553.3271   -5444.8822    576642.72    4023.8046 
20217700    259.89416    0.8777114    5059.5165    7341.2692   -2281.7527    1346.2933    4963.5305    777.83746            0   -11509.462    7582.2977   -5442.2492    576642.72    4798.6839 
20217800    258.33832    0.8777114    4995.2904    7297.3211   -2302.0308    1313.6019    5019.7744    754.91031            0   -11544.355    7598.1149    -5444.077    576642.72    3951.2289 
20217900    261.00493    0.8777114    5022.4078    7372.6453   -2350.2375    1354.5242    4935.8221    765.50209            0   -11538.397     7571.964   -5439.6529    576642.72     3693.871 
20218000    261.44852    0.8777114    5081.0891    7385.1755   -2304.0864     1343.816    5021.0521    778.86201            0   -11602.201    7592.5825   -5438.1977    576642.72    4092.6599 
20218100    261.35498    0.8777114    5121.7619    7382.5331   -2260.7712    1370.6881    5055.8323    809.58272            0   -11619.723    7563.0574   -5440.2089    576642.72    3893.5526 
20218200    261.54312    0.8777114    5147.1507    7387.8477   -2240.6971    1297.9067    5023.9644    793.86993            0   -11514.624    7596.9296   -5438.7433    576642.72    5828.8185 
20218300    265.70637    0.8777114    5255.1551    7505.4476   -2250.2925    1324.3519    5070.1004    786.91296            0   -11556.665    7566.8531   -5441.8463    576642.72    3995.8153 
20218400    262.14667    0.8777114    5196.9684    7404.8963   -2207.9279    1374.7385    4987.5976    788.38831            0   -11492.023      7580.83   -5447.4593    576642.72    4484.0165 
20218500    261.47124    0.8777114    5060.8218    7385.8171   -2324.9953    1298.7685     4982.981    791.72577            0   -11519.009    7572.4317   -5451.8936    576642.72    5042.5466 
20218600    259.32238    0.8777114    4987.1634     7325.118   -2337.9546    1296.2132    4962.7147    772.52722            0   -11499.916    7580.7015   -5450.1953    576642.72    4383.7787 
20218700    260.66657    0.8777114    4997.1137    7363.0877    -2365.974    1317.1977    4950.3743    787.89946            0   -11558.083    7585.1402   -5448.5021    576642.72    4305.4856 
20218800    262.91504    0.8777114    5153.0937    7426.6004   -2273.5067    1330.3334    5034.5899     796.6337            0   -11554.938    7568.4438   -5448.5694    576642.72    4211.5503 
20218900    264.07992    0.8777114     5209.358     7459.505    -2250.147    1352.0031    5079.1976    781.30499            0   -11562.922    7547.5104   -5447.2416    576642.72    4233.6307 
20219000    262.31576    0.8777114    5140.7962    7409.6726   -2268.8765    1348.1656    5024.5347    792.85794            0   -11531.078    7544.8611   -5448.2179    576642.72    5663.8965 
20219100    261.06201    0.8777114    5066.5843    7374.2577   -2307.6734    1340.2486    5019.4175    789.12609            0   -11552.172    7542.8496   -5447.1436    576642.72    4157.0104 
20219200    260.53619    0.8777114    5011.5936    7359.4048   -2347.8112    1336.2402    4970.5855     783.2444            0   -11562.565    7568.8556    -5444.172    576642.72    4602.3935 
20219300    259.04311    0.8777114    5002.5748    7317.2295   -2314.6547    1299.2162    5004.8998     781.4343            0    -11515.13    7559.4258   -5444.5004    576642.72    4366.5732 
20219400    260.36421    0.8777114    5132.7768    7354.5467   -2221.7698      1348.47    5054.2983    793.75715            0   -11543.565    7568.5462   -5443.2766    576642.72    4579.8795 
20219500    265.35589    0.8777114    5307.9031    7495.5476   -2187.6445    1378.5522    5092.9817    772.64243            0   -11551.056    7569.0542   -5449.8186    576642.72    4192.9373 
20219600    265.06207    0.8777114    5222.2771    7487.2478   -2264.9707    1354.8969    5026.4348    775.54241            0   -11530.856    7558.5119   -5449.5003    576642.72    5096.9481 
20219700      263.486    0.8777114    5078.6207    7442.7284   -2364.1077    1331.3923    4911.5172    787.21897            0   -11492.553    7550.0544   -5451.7378    576642.72    6084.4001 
20219800    259.55987    0.8777114    5014.7739    7331.8266   -2317.0527     1330.608    5008.8087    787.86138            0   -11557.164    7561.7555   -5448.9221    576642.72    4228.4866 
20219900    260.63588    0.8777114    5036.5791    7362.2206   -2325.6415    1333.7989    4959.2198    777.11411            0   -11536.009     7584.017   -5443.7821    576642.72    4071.9767 
20220000    264.12312    0.8777114     5138.021    7460.7253   -2322.7043    1383.9292    4905.8519    781.57212            0   -11520.991    7569.4853   -5442.5514    576642.72    5054.5389 
20220100    267.45191    0.8777114    5272.8294    7554.7541   -2281.9248    1362.9455     5029.876    768.88064            0   -11561.933      7560.11   -5441.8035    576642.72    4505.4381 
20220200    266.41639    0.8777114    5223.3869    7525.5036   -2302.1167    1351.6774    4939.0194    800.97864            0   -11501.616    7554.0791   -5446.2555    576642.72    5097.3908 
20220300    260.14153    0.8777114    5046.0451    7348.2567   -2302.2116    1380.5256    4950.8252    770.12364            0   -11530.235    7567.6887   -5441.1399    576642.72    4052.9171 
20220400    261.27398    0.8777114    5023.1563    7380.2452   -2357.0889    1329.7732    4964.4129    774.07697            0   -11542.495    7561.7172   -5444.5744    576642.72    3539.8424 
20220500    262.74953    0.8777114    5028.2423    7421.9254   -2393.6831    1379.6443    4886.5482    752.17272            0   -11518.802    7552.6719    -5445.918    576642.72    3872.1351 
20220600    263.36967    0.8777114    5066.6448    7439.4426   -2372.7978     1376.532    4930.1524    777.70654            0   -11576.057    7568.3679   -5449.4991    576642.72    4055.3959 
20220700    261.62637    0.8777114    5147.1129    7390.1991   -2243.0862    1311.7487    5050.3629    766.04713            0   -11519.104    7587.6828   -5439.8235    576642.72    5357.9734 
20220800    263.52229    0.8777114    5198.4208    7443.7534   -2245.3326    1371.9965     4987.643    769.57601            0   -11531.761    7594.1319   -5436.9193    576642.72    4180.0898 
20220900    263.60146    0.8777114    5087.8796      7445.99   -2358.1103    1313.9525    4917.4349    788.45385            0   -11518.502    7584.7531   -5444.2023    576642.72    6584.6342 
20221000    259.16973    0.8777114    4946.0366     7320.806   -2374.7694    1350.4856    4975.0348    767.16884            0   -11582.207    7562.0951   -5447.3463    576642.72    4757.8261 
20221100    258.20991    0.8777114    4961.1241     7293.694   -2332.5699    1348.9309    4972.8698    789.34049            0   -11546.216    7548.1705   -5445.6655    576642.72    4216.4094 
20221200    264.20364    0.8777114    5068.4425    7462.9998   -2394.5573    1335.0392    4953.3948    752.78452            0    -11543.76    7554.7152   -5446.7309    576642.72    4968.9477 
20221300    262.70091    0.8777114    5113.7105    7420.5519   -2306.8414    1359.3682    5027.0127    778.09188            0   -11588.068    7565.8005   -5449.0466    576642.72    3636.7369 
20221400    263.74998    0.8777114    5099.4723    7450.1852   -2350.7129    1410.7767    4885.3644    779.48111            0   -11551.948    7572.2987   -5446.6854    576642.72    4073.5998 
20221500    260.12087    0.8777114    5078.7921     7347.673    -2268.881    1368.1833    4991.0309    777.34899            0   -11542.097    7584.1304   -5447.4774    576642.72     3782.235 
20221600    263.36079    0.8777114    5074.8897    7439.1916   -2364.3019    1286.8749    4963.9354    769.02024            0   -11519.465    7584.6568   -5449.3241    576642.72     4176.889 
20221700    264.04539    0.8777114    5084.4923    7458.5296   -2374.0373    1343.7691    4982.4713    775.25777            0   -11602.089    7577.5098   -5450.9561    576642.72     3551.758 
20221800     263.8158    0.8777114    5080.8922    7452.0443   -2371.1521    1335.6246    4971.7326    767.47475            0   -11589.601    7592.1164   -5448.4992    576642.72    4535.5712 
20221900     256.8446    0.8777114    4971.1077    7255.1279   -2284.0202     1329.176    5002.7389    789.76353            0   -11537.398    7579.3531   -5447.6542    576642.72     4733.212 
20222000    259.00931    0.8777114    4957.0431    7316.2746   -2359.2315    1351.7806    4906.4199    761.14474            0   -11530.601    7597.5804   -5445.5564    576642.72    4267.9332 
20222100    263.58144    0.8777114    5030.1071    7445.4244   -2415.3173    1360.9325     4909.746    770.34465            0   -11567.432    7560.8254   -5449.7342    576642.72    2924.3526 
20222200    266.24282    0.8777114    5150.5809    7520.6009     -2370.02    1329.8682    4983.5108    760.73524            0   -11561.167    7566.1468   -5449.1145    576642.72    4474.1576 
20222300    264.11632    0.8777114    5185.9455    7460.5331   -2274.5877    1387.4656    4945.8258    799.28614            0     -11511.5    7551.1767   -5446.8418    576642.72    3102.5717 
20222400    260.64813    0.8777114    5038.2648    7362.5668    -2324.302    1370.2565    4947.0167    793.97524            0    -11533.91     7546.081   -5447.7214    576642.72    3713.7548 
20222500    258.55701    0.8777114      4929.13    7303.4986   -2374.3686    1345.1367    4917.5651    761.67364            0   -11499.107     7548.434   -5448.0709    576642.72    4019.0352 
20222600    266.29328    0.8777114    4960.7678    7522.0261   -2561.2584    1300.0229    4863.2923     729.1769            0   -11564.196    7562.0704   -5451.6251    576642.72    3711.3839 
20222700     261.2791    0.8777114    5041.3551    7380.3898   -2339.0347    1430.8668    4922.6954    758.96544            0   -11560.743    7563.3987   -5454.2182    576642.72    4107.8222 
20222800    263.93769    0.8777114    5189.7181    7455.4875   -2265.7694    1332.4038    5017.9552    759.72158            0   -11473.222    7553.0398   -5455.6676    576642.72    5372.1636 
20222900    263.13332    0.8777114    5229.2531    7432.7662   -2203.5131    1385.9534    5038.3498    794.21095            0   -11525.582     7559.889   -5456.3339    576642.72     4272.757 
20223000    262.32103    0.8777114    5117.3872    7409.8214   -2292.4342     1373.396     5014.768    776.12702            0   -11544.772     7543.503   -5455.4561    576642.72    2984.2198 
20223100    261.86644    0.8777114    5065.6606    7396.9805     -2331.32    1315.0796    5015.2614    769.82689            0   -11554.308    7568.9973   -5446.1772    576642.72    3021.7467 
20223200    260.77735    0.8777114    5016.9526    7366.2168   -2349.2642    1373.6599     4952.735    772.95076            0   -11594.168    7587.6078   -5442.0499    576642.72    3608.1635 
20223300    260.12906    0.8777114    4942.4533    7347.9044   -2405.4511    1298.9502    4939.0626     766.2041            0     -11553.7    7586.8727   -5442.8409    576642.72    4417.5777 
20223400    261.42927    0.8777114    4951.5686    7384.6318   -2433.0632    1333.4324     4883.206    794.81831            0   -11567.624     7566.402   -5443.2979    576642.72    4314.1738 
20223500    265.88822    0.8777114    5119.6005    7510.5843   -2390.9838    1325.8161    4946.8659    722.89376            0   -11507.518    7568.0461   -5447.0874    576642.72    3923.4246 
20223600    267.24288    0.8777114    5093.3701    7548.8496   -2455.4795    1352.7596    4836.5678    773.86069            0   -11519.398    7549.3254   -5448.5953    576642.72     4639.171 
20223700    263.15802    0.8777114    5011.5893    7433.4639   -2421.8746    1292.6476    4969.3604    760.36844            0   -11549.483     7549.576   -5444.3441    576642.72    4553.3031 
20223800    261.09942    0.8777114    4963.9811    7375.3145   -2411.3333    1284.4646    4943.1103    759.90771            0   -11497.282    7542.6305   -5444.1646    576642.72    3544.9954 
20223900    261.73276    0.8777114    4958.2246    7393.2046   -2434.9799    1312.0772    4924.3533    757.32888            0   -11557.785    7576.6404   -5447.5944    576642.72    5262.2678 
20224000    261.26046    0.8777114    4984.9691    7379.8634   -2394.8942     1339.191    4959.1189    779.17339            0   -11586.687    7566.3734   -5452.0636    576642.72    4584.5731 
20224100     262.0706    0.8777114    5139.1753    7402.7475   -2263.5722       1349.7    5004.7573    764.87068            0   -11510.165    7575.0383   -5447.7731    576642.72    4596.9866 
20224200    265.17401    0.8777114    5191.8969    7490.4101   -2298.5131    1303.3896    5015.3697    774.24477            0    -11498.14    7558.3591   -5451.7365    576642.72    4890.9677 
20224300    261.80945    0.8777114    5082.0796    7395.3707   -2313.2912    1336.6613    4987.2924    785.82319            0   -11529.941    7558.3602    -5451.487    576642.72    4916.7276 
20224400    260.68261    0.8777114     4987.384    7363.5406   -2376.1567    1309.9259    4959.5378      781.118            0   -11562.142    7577.0036   -5441.5997    576642.72    4558.2427 
20224500    260.98996    0.8777114    4973.6224    7372.2226   -2398.6002    1369.6698    4907.7338    766.97126            0   -11556.506    7556.9495   -5443.4185    576642.72    3661.7237 
20224600    265.90235    0.8777114    4987.4422    7510.9834   -2523.5412    1312.8698    4877.0809    758.83411            0   -11587.778    7561.6493   -5446.1973    576642.72    3475.3005 
20224700    260.85034    0.8777114    4996.8642    7368.2787   -2371.4144    1326.2951    4938.5781    767.68532            0   -11545.905    7587.8562   -5445.9243    576642.72    4494.8242 
20224800    265.23997    0.8777114    5140.8649    7492.2732   -2351.4083    1347.2896    4934.7148    767.68747            0   -11532.071      7575.87   -5444.8994    576642.72    5056.1326 
20224900    266.33568    0.8777114    5249.1648    7523.2238   -2274.0591    1292.5553    5022.2124    780.98601            0   -11469.658    7548.1731   -5448.3278    576642.72    5312.1343 
20225000    263.59531    0.8777114    5164.3988    7445.8161   -2281.4173    1369.5515    5012.3957    763.81849            0   -11559.849    7576.1608   -5443.4951    576642.72    4269.7031 
20225100    259.04881    0.8777114    5060.1636    7317.3906    -2257.227    1334.6207    5002.9335    795.15182            0   -11531.804     7584.841   -5442.9705    576642.72    4116.8176 
20225200    261.56644    0.8777114    5046.5477    7388.5065   -2341.9588    1339.0263    4888.8584    773.29126            0   -11498.435    7592.7981   -5437.4977    576642.72     4561.172 
20225300    260.62656    0.8777114    5093.0581    7361.9575   -2268.8994    1375.3567    4903.1153    776.87866            0   -11463.354    7576.8979   -5437.7941    576642.72    4490.1074 
20225400    264.27597    0.8777114    5199.7735     7465.043   -2265.2694    1346.9929    5053.3796    766.05093            0   -11549.678    7559.2623   -5441.2774    576642.72    4310.5072 
20225500     266.5571    0.8777114    5260.1171    7529.4784   -2269.3613    1407.3906    4997.6884    727.52972            0   -11506.555    7549.9638    -5445.379    576642.72     3943.751 
20225600    263.96456    0.8777114    5068.4106    7456.2465    -2387.836    1377.4333    4956.4713    755.21738            0   -11578.897    7549.1293   -5447.1904    576642.72    4131.0703 
20225700    263.91187    0.8777114    4990.1792     7454.758   -2464.5788    1328.9555    4847.7914    743.79253            0   -11509.014    7572.5575   -5448.6617    576642.72    4498.9403 
20225800    260.23898    0.8777114    4982.4525    7351.0095    -2368.557    1321.0279    4925.8171    745.20473            0   -11480.461    7568.7639   -5448.9093    576642.72    4342.3595 
20225900    265.42937    0.8777114    5035.5876     7497.623   -2462.0354     1339.427    4901.8615     755.9648            0   -11557.333    7550.5714   -5452.5272    576642.72    2994.7803 
20226000    262.30618    0.8777114    5102.0612    7409.4018   -2307.3406    1318.1337    4974.3759     769.7072            0   -11478.092    7562.4693   -5453.9348    576642.72    4396.7985 
20226100    264.66849    0.8777114    5194.6731    7476.1305   -2281.4574    1336.3323    4978.6875    763.13197            0   -11483.511    7574.0553   -5450.1535    576642.72    5101.9419 
20226200      265.464    0.8777114    5192.0142    7498.6013   -2306.5872    1350.6817    4981.5844    755.01488            0   -11538.116    7589.6348    -5445.387    576642.72    4457.1325 
20226300    261.68707    0.8777114    5015.5623    7391.9139   -2376.3516     1362.068    4889.7251    766.93813            0   -11525.383    7580.6381   -5450.3381    576642.72    4095.8048 
20226400    259.87525    0.8777114    4971.9292     7340.735   -2368.8058    1350.5738    4934.2805    732.50365            0   -11504.696    7566.5381   -5448.0062    576642.72    3777.6355 
20226500    261.07906    0.8777114     5016.804    7374.7392   -2357.9352    1360.7033    4927.3218    796.70208            0   -11542.397    7548.7975    -5449.063    576642.72    4030.5363 
20226600    263.44871    0.8777114    5134.1532    7441.6753   -2307.5221    1305.6118    5046.7075    777.42868            0   -11571.532    7578.7753   -5444.5136    576642.72    4672.0053 
20226700    259.87036    0.8777114    5191.2169    7340.5968     -2149.38    1309.1204    5095.2168    771.72536            0    -11454.41    7571.6728   -5442.7049    576642.72    5050.3288 
20226800    263.68698    0.8777114    5094.7289    7448.4056   -2353.6767    1307.0732    4930.5818     777.6738            0   -11502.624    7578.4379   -5444.8199    576642.72    6154.2931 
20226900    258.49299    0.8777114    4953.6498    7301.6901   -2348.0403    1314.8333    4929.8448     787.8186            0    -11497.25    7558.6664   -5441.9533    576642.72    3601.3776 
20227000    262.01018    0.8777114    4976.1372    7401.0408   -2424.9036    1366.8257    4858.3771    791.77153            0   -11559.353    7560.8787   -5443.4038    576642.72    2652.4222 
20227100    263.47792    0.8777114     5092.088    7442.5002   -2350.4122    1322.2349    4946.7068    786.10551            0   -11545.768    7581.1116   -5440.8028    576642.72     4007.044 
20227200    264.24183    0.8777114    5152.8981    7464.0786   -2311.1804    1320.4229    4945.6499    810.95292            0   -11508.999    7566.0914   -5445.2982    576642.72    4425.8671 
20227300    262.86912    0.8777114    5129.3245    7425.3034   -2295.9789    1292.3663    4997.4936    807.18307            0   -11510.981     7564.384   -5446.4247    576642.72    4730.3641 
20227400    260.65089    0.8777114    4939.2467    7362.6446   -2423.3979    1350.9149    4908.1759    752.08834            0    -11546.57    7557.3925   -5445.3996    576642.72    3441.5819 
20227500    258.78502    0.8777114    4897.0343    7309.9391   -2412.9047    1329.1279    4879.5356    785.28434            0   -11540.625    7573.6267   -5439.8543    576642.72    3232.6846 
20227600    259.79667    0.8777114     4993.269    7338.5155   -2345.2465    1367.5354    4891.5955    767.69708            0   -11486.577    7560.4065   -5445.9037    576642.72    4043.8249 
20227700    265.09093    0.8777114    5070.4338    7488.0631   -2417.6293    1324.9918    4940.5451    767.01259            0   -11562.026    7553.6513   -5441.8043    576642.72    3245.8471 
20227800    262.02339    0.8777114    5028.9482     7401.414   -2372.4658    1326.2534    5006.1768    741.24979            0   -11556.158    7556.5428    -5446.531    576642.72    4354.6715 
20227900    259.45855    0.8777114     4977.215    7328.9646   -2351.7496    1309.4588    4977.5498    779.35027            0   -11551.314    7574.6035   -5441.3978    576642.72    4386.8258 
20228000    261.89131    0.8777114    4975.9396    7397.6831   -2421.7435     1336.588    4898.0097    755.34313            0   -11534.659    7571.1889   -5448.2146    576642.72    4118.6094 
20228100    261.43284    0.8777114    4999.6913    7384.7327   -2385.0414    1359.0203    4843.4947    777.29612            0   -11503.122    7582.0497   -5443.7798    576642.72    4325.4491 
20228200    261.50595    0.8777114    5061.0869    7386.7976   -2325.7107    1338.0236    4998.7661    761.38069            0   -11548.497    7571.6231    -5447.007    576642.72    3081.6267 
20228300    260.97099    0.8777114    5113.4878    7371.6866   -2258.1987    1362.3842    5024.0951    787.16506            0   -11552.347    7569.4274   -5448.9235    576642.72      4179.98 
20228400    262.15366    0.8777114    5104.0532    7405.0937   -2301.0405    1391.2452     4940.194    794.62069            0   -11560.139    7573.7178   -5440.6794    576642.72    4279.7662 
20228500    260.61789    0.8777114    4991.2701    7361.7125   -2370.4424    1315.4947    4922.7815    777.02288            0   -11505.766    7564.5776   -5444.5533    576642.72    5232.2416 
20228600    261.43783    0.8777114    4895.0465    7384.8736   -2489.8272    1300.1065    4885.3137    767.82491            0    -11575.05    7575.8975   -5443.9199    576642.72    4296.7766 
20228700    259.98892    0.8777114    4908.3463    7343.9459   -2435.5996    1329.5158    4909.5786     760.8624            0   -11548.397    7560.9612   -5448.1202    576642.72    5693.5241 
20228800    262.12753    0.8777114    5076.6405    7404.3556   -2327.7151    1318.6595    5045.3448    754.03032            0   -11558.463    7561.2939   -5448.5808    576642.72    4464.3512 
20228900    263.25369    0.8777114    5107.2355    7436.1663   -2328.9308    1294.0377    5030.3269    792.82925            0   -11560.598    7560.9571   -5446.4838    576642.72    4287.0453 
20229000    262.14964    0.8777114    5059.5268    7404.9802   -2345.4534    1371.0627    4931.3409    783.39867            0   -11513.128    7533.4833   -5451.6109    576642.72    5127.7681 
20229100     260.2633    0.8777114    4984.8576    7351.6963   -2366.8387    1323.8838    4981.6916    770.92303            0   -11539.982    7548.4178   -5451.7729    576642.72    4992.3611 
20229200    258.27878    0.8777114    4865.8924    7295.6394    -2429.747    1329.4588    4909.9479     764.0206            0   -11552.712    7562.3188   -5442.7809    576642.72    3567.8535 
20229300    257.80402    0.8777114    4776.4632    7282.2288   -2505.7656    1308.9348    4863.1156    760.35496            0   -11561.396    7564.5267   -5441.3012    576642.72    3440.0078 
20229400    258.56001    0.8777114    4973.5969    7303.5834   -2329.9865    1347.3378     4980.671    760.67083            0    -11538.03    7557.7883   -5438.4242    576642.72    4832.8257 
20229500     259.9785    0.8777114     5074.993    7343.6515   -2268.6585     1395.911    4921.7065    781.35122            0   -11513.018    7581.7705   -5436.3792    576642.72    4523.7133 
20229600    264.01281    0.8777114    5097.7616    7457.6094   -2359.8478    1330.7484    4943.1066    809.62953            0   -11557.284    7559.3155    -5445.364    576642.72    4853.3352 
20229700    263.73886    0.8777114    5072.1768    7449.8709   -2377.6941    1310.3721    4919.5691    810.15756            0   -11518.178    7543.5431   -5443.1583    576642.72    4322.8167 
20229800     261.8959    0.8777114    4979.7881    7397.8126   -2418.0246    1326.3501    4874.9775     781.1613            0   -11519.675    7560.8481   -5441.6869    576642.72    3867.5816 
20229900    257.77311    0.8777114    4876.9778    7281.3556   -2404.3778    1311.4722     4973.938    784.17467            0   -11584.557    7553.8022   -5443.2075    576642.72    4205.2496 
20230000    259.16125    0.8777114    4962.0764    7320.5666   -2358.4902      1377.54    4945.9939     774.8161            0   -11547.596    7533.3304   -5442.5747    576642.72    3847.4547 
20230100    262.65026    0.8777114    5063.5468    7419.1213   -2355.5745    1323.7771     4899.891    767.17643            0    -11455.62    7554.5806   -5445.3796    576642.72    5618.9348 
20230200    262.59035    0.8777114    5049.2746    7417.4289   -2368.1543    1370.2043      4993.94    761.37934            0   -11600.364    7551.0383   -5444.3521    576642.72    3402.1525 
20230300    263.22594    0.8777114    5010.4124    7435.3824     -2424.97    1380.4924     4926.587     763.1567            0   -11600.705    7549.7058   -5444.2069    576642.72    3504.2541 
20230400    258.99656    0.8777114    4915.9836    7315.9144   -2399.9309      1336.67    4932.2118    759.23054            0   -11550.814    7563.4595   -5440.6884    576642.72    3785.3782 
20230500    261.67863    0.8777114    4868.6257    7391.6753   -2523.0496    1316.5155    4854.9931     766.7036            0   -11588.768    7568.2964   -5440.7904    576642.72    3709.2635 
20230600    262.73325    0.8777114    5060.4533    7421.4656   -2361.0123    1322.6662    4955.0685     754.9378            0   -11529.296     7574.988   -5439.3768    576642.72    4613.7064 
20230700    262.94843    0.8777114    5129.3048    7427.5436   -2298.2388    1360.9536    4961.6543    782.87979            0   -11515.297    7558.1372    -5446.567    576642.72    4415.2968 
20230800    263.09923    0.8777114    5139.2052    7431.8034   -2292.5982    1331.0652    4996.1995    770.96774            0   -11532.469    7585.1726   -5443.5346    576642.72     4974.236 
20230900    258.53839    0.8777114    5051.8159    7302.9726   -2251.1567    1348.3092    5044.9129     757.2858            0   -11547.591    7582.8503   -5436.9236    576642.72    4159.4242 
20231000    261.61857    0.8777114    4919.2276    7389.9788   -2470.7512    1286.1839    4905.4703    756.38228            0    -11541.92    7560.7731   -5437.6405    576642.72    3690.0506 
20231100    260.62656    0.8777114    4885.1841    7361.9576   -2476.7734    1346.3938    4859.7011    744.39371            0   -11543.073    7555.2297   -5439.4191    576642.72    3579.6086 
20231200    260.39636    0.8777114    5026.7909    7355.4549    -2328.664    1355.1955    4993.4332     772.0734            0   -11574.801    7566.2965   -5440.8616    576642.72    3312.9596 
20231300    261.32141    0.8777114     5090.662    7381.5849   -2290.9229    1360.1945    4934.7786    783.41951            0   -11518.901    7588.5411   -5438.9557    576642.72    3805.4789 
20231400    263.96393    0.8777114    5117.5791    7456.2286   -2338.6495    1380.5185    4959.3429    769.80769            0   -11599.995    7593.1219   -5441.4453    576642.72    3544.6063 
20231500    264.02341    0.8777114     5123.685    7457.9087   -2334.2237    1346.5385    4909.1687    792.42345            0    -11514.18     7574.202   -5442.3762    576642.72    4111.7789 
20231600    261.59017    0.8777114    5072.8454    7389.1766   -2316.3312    1384.0409    4926.5374    783.75344            0   -11550.279    7582.7969   -5443.1809    576642.72    3327.7513 
20231700    260.44497    0.8777114    4997.9281    7356.8281      -2358.9    1355.9701    4942.1293    758.80779            0   -11555.602    7577.9624   -5438.1672    576642.72    4013.6605 
20231800    260.31314    0.8777114    4948.1297    7353.1042   -2404.9745     1336.841    4892.6059    759.81426            0   -11535.444    7587.3536   -5446.1449    576642.72    4594.3679 
20231900    259.41393    0.8777114    5037.9341    7327.7041     -2289.77    1324.3286    5050.1011    794.62548            0   -11589.629    7574.2842   -5443.4803    576642.72    3959.7357 
20232000     262.8393    0.8777114    5159.7294     7424.461   -2264.7316    1341.9589    5044.5425    763.66369            0   -11548.072    7577.0418   -5443.8666    576642.72    4840.8933 
20232100    262.21371    0.8777114    5122.9866      7406.79   -2283.8034    1361.4097    5042.2223    762.55597            0   -11562.507    7554.6827   -5442.1667    576642.72    4874.7346 
20232200    261.96186    0.8777114    5037.4855    7399.6758   -2362.1904    1320.1997    4958.7988    765.86498            0   -11543.059    7580.6172   -5444.6117    576642.72    4757.4958 
20232300    258.30701    0.8777114    4879.7125    7296.4368   -2416.7243    1313.0394    4925.6987    778.49463            0   -11551.128    7564.0123   -5446.8409    576642.72     4280.668 
20232400    261.78461    0.8777114    4811.8012    7394.6691    -2582.868    1295.5266    4874.7649    767.88049            0   -11617.486    7546.8743   -5450.4281    576642.72    4401.9077 
20232500    262.75343    0.8777114    5038.1931    7422.0353   -2383.8423    1311.4252    5034.1319    776.71664            0   -11606.297     7547.376   -5447.1948    576642.72    3805.6288 
20232600    264.47156    0.8777114    5117.2095    7470.5677   -2353.3582    1355.1054    4949.9448    800.17361            0   -11589.963    7575.8534   -5444.4727    576642.72    4381.1672 
20232700    263.90388    0.8777114    5119.2509    7454.5324   -2335.2815    1384.5813    4925.3723    764.67919            0   -11551.362    7588.7543   -5447.3062    576642.72    4543.0782 
20232800    263.78722    0.8777114    5076.5173     7451.237   -2374.7197    1315.9912    4887.8265    809.34575            0   -11518.912    7572.7193   -5441.6907    576642.72    3631.1707 
20232900    259.54575    0.8777114    4980.4811    7331.4276   -2350.9464    1329.2044    5016.4941    771.01833            0   -11576.586    7556.2481   -5447.3256    576642.72    3882.2849 
20233000    260.99847    0.8777114    4902.6959    7372.4629    -2469.767    1330.5873    4910.6119    768.54545            0   -11596.111    7562.9807   -5446.3811    576642.72    4305.1139 
20233100    263.10175    0.8777114     5033.725    7431.8744   -2398.1494    1349.6633    4948.1077    772.82163            0   -11584.325    7562.9516   -5447.3688    576642.72    4135.4215 
20233200    263.68312    0.8777114    5144.3465    7448.2966     -2303.95    1401.3772     4936.515    773.02614            0   -11547.227    7577.3821   -5445.0237    576642.72      3275.28 
20233300     262.9721    0.8777114    5104.2505    7428.2122   -2323.9617    1378.0324    4977.5117     770.0065            0   -11553.124    7549.0418   -5445.4305    576642.72    3312.9996 
20233400    261.39561    0.8777114    5013.1345    7383.6809   -2370.5464    1357.2405    4960.7405    765.76932            0   -11550.872    7541.4441   -5444.8691    576642.72    3819.5148 
20233500    258.74097    0.8777114    4933.3112     7308.695   -2375.3838    1348.4952    5007.7171    758.46593            0   -11613.427    7566.5696   -5443.2043    576642.72    3535.2458 
20233600    258.36067    0.8777114    4863.9307    7297.9525   -2434.0218    1344.3526    4912.4942    772.44131            0   -11589.896    7570.5167   -5443.9305    576642.72    3774.3916 
20233700    258.27816    0.8777114    4859.7092    7295.6218   -2435.9126    1353.5283     4923.527    769.79689            0   -11591.263    7555.7466   -5447.2486    576642.72    3392.5427 
20233800    261.30186    0.8777114    5018.1595    7381.0327   -2362.8731    1327.4491    4964.5113    778.62268            0   -11559.624    7569.6408    -5443.473    576642.72    5029.7973 
20233900    263.35224    0.8777114    5111.0027    7438.9502   -2327.9475    1366.6747    4966.9797    772.61944            0   -11538.948    7553.5623   -5448.8354    576642.72     4876.579 
20234000    263.35937    0.8777114    5097.5886    7439.1515   -2341.5629     1378.253    4929.4946    754.70148            0   -11533.637    7571.1582   -5441.5331    576642.72    5612.6055 
20234100     257.5097    0.8777114    5022.4047    7273.9151   -2251.5104    1340.3684    5074.2521    767.50168            0   -11567.218    7577.6451   -5444.0599    576642.72    4898.9087 
20234200    256.73742    0.8777114    4922.7335    7252.1004   -2329.3669    1324.3396    4945.8882    760.08457            0   -11495.606    7581.4988   -5445.5724    576642.72    4783.1919 
20234300    262.15183    0.8777114    4976.7737    7405.0419   -2428.2682    1347.9369    4936.4485    760.81264            0   -11587.679    7560.6517   -5446.4394    576642.72    3504.3051 
20234400    261.42961    0.8777114    5143.9929    7384.6414   -2240.6485    1348.4159     4971.817    792.90392            0   -11441.069    7539.7494   -5452.4658    576642.72    5260.4614 
20234500    266.45195    0.8777114    5177.4897    7526.5082   -2349.0185     1408.308     4908.289    791.99608            0   -11555.661    7547.1757   -5449.1264    576642.72     3526.221 
20234600    263.47251    0.8777114    5080.3857    7442.3475   -2361.9619     1422.459    4869.4633    759.26401            0   -11506.314    7539.5714   -5446.4056    576642.72    3927.8042 
20234700    263.57106    0.8777114    4988.0469    7445.1312   -2457.0843    1339.7442     4884.989    744.59938            0   -11526.499    7549.7157    -5449.633    576642.72    3902.1183 
20234800    253.95771    0.8777114    4991.3115    7173.5815     -2182.27    1389.7013     5049.348    802.48586            0   -11546.759    7563.4992   -5440.5453    576642.72    3320.1735 
20234900    262.19759    0.8777114    5050.6699    7406.3346   -2355.6647    1357.1379     4934.197    784.59131            0   -11548.258    7557.7865   -5441.1193    576642.72    4805.0312 
20235000    260.32997    0.8777114    5059.7959    7353.5796   -2293.7837    1353.3549    5033.1118    761.57643            0   -11541.683    7542.0978    -5442.242    576642.72    5786.7281 
20235100    264.79279    0.8777114    5061.3075    7479.6414   -2418.3339    1310.5764    4971.7963     757.3192            0   -11578.299    7557.6708   -5437.3975    576642.72    4434.9777 
20235200    260.09813    0.8777114    4930.6767    7347.0308   -2416.3541      1353.09    4926.7594    752.80576            0   -11592.106    7577.3071   -5434.2106    576642.72    3007.6013 
20235300    258.63231    0.8777114    4816.4157    7305.6255   -2489.2098    1312.9137    4848.5077    768.21976            0   -11532.831    7549.1984   -5435.2181    576642.72    2853.3856 
20235400    264.69221    0.8777114    4904.3357    7476.8006   -2572.4649    1266.6885    4857.8778    759.48947            0   -11566.991    7548.6315   -5438.1609    576642.72    3428.9156 
20235500    260.74531    0.8777114    4978.8654    7365.3118   -2386.4464      1323.79    4989.1725    775.89766            0   -11587.216    7551.5545   -5439.6452    576642.72    4147.3595 
20235600    261.07112    0.8777114    5031.0946     7374.515   -2343.4204    1358.7018    4933.3145    772.92433            0   -11529.356     7557.903   -5436.9075    576642.72    4428.3533 
20235700    262.41104    0.8777114    5091.8316     7412.364   -2320.5324    1368.6232    4955.3314    765.39687            0   -11509.962    7544.1598   -5444.0813    576642.72    4113.9442 
20235800    264.30468    0.8777114    5170.6342    7465.8539   -2295.2197    1386.4052    4975.1451    770.97219            0    -11544.96    7559.9479   -5442.7301    576642.72    3619.9274 
20235900    265.35365    0.8777114    5224.8272    7495.4843   -2270.6571    1415.2308    4904.4141    786.59588            0   -11485.184    7550.3813   -5442.0948    576642.72    4350.0504 
20236000    262.10096    0.8777114    5152.3781     7403.605    -2251.227    1415.5419    5007.2277    773.71531            0   -11554.555    7545.3031   -5438.4598    576642.72    3171.2681 
20236100    260.19863    0.8777114    4997.0076    7349.8697   -2352.8621    1358.6842    4969.1141    764.02045            0   -11552.651    7548.4515   -5440.4817    576642.72    3366.0553 
20236200    261.25594    0.8777114    4944.2654    7379.7355   -2435.4701    1372.3935    4862.0167    762.16703            0   -11538.325    7547.8851   -5441.6071    576642.72    3496.7411 
20236300    260.65268    0.8777114    4991.9315    7362.6951   -2370.7636    1401.4487    4914.8472    781.49132            0   -11556.376    7533.3562    -5445.531    576642.72    3109.2589 
20236400    263.85718    0.8777114    5132.8287    7453.2132   -2320.3846    1390.4969    4934.9096    770.23622            0   -11505.282    7532.7293    -5443.475    576642.72    3699.3548 
20236500    265.40518    0.8777114    5216.7217    7496.9397   -2280.2181    1346.2248    5029.3208    780.20409            0   -11533.048     7541.609   -5444.5285    576642.72    5038.1709 
20236600    265.11117    0.8777114    5148.6726    7488.6349   -2339.9622    1373.2072    4965.0721    749.71394            0   -11510.976    7532.9297   -5449.9091    576642.72    5598.0858 
20236700    264.63992    0.8777114    5060.9492    7475.3234   -2414.3743    1280.6945    5051.8521    768.64134            0   -11620.478    7550.9136   -5445.9977    576642.72    5022.1328 
20236800    259.96213    0.8777114    4962.7301    7343.1893   -2380.4591    1309.7155    4952.3315    762.10353            0     -11520.3    7562.4712   -5446.7808    576642.72    4861.7177 
20236900    264.32622    0.8777114    4956.2009    7466.4623   -2510.2614    1296.5248    4924.5173    775.39311            0   -11597.846    7537.3039   -5446.1548    576642.72    4561.4738 
20237000    263.87256    0.8777114    5045.0568    7453.6476   -2408.5908    1357.7472     5016.217    758.37166            0   -11627.698    7534.7978   -5448.0266    576642.72    5042.3904 
20237100    262.58587    0.8777114    5204.0188    7417.3024   -2213.2836     1365.348    5020.4298    805.76619            0   -11492.363    7535.7561   -5448.2204    576642.72    5173.4359 
20237200    266.14495    0.8777114    5234.5492    7517.8362   -2283.2871     1295.307    5156.0735    780.10286            0   -11599.557    7534.2367   -5449.4498    576642.72    4194.6968 
20237300    264.05253    0.8777114    5135.5615    7458.7312   -2323.1697    1306.9622     5017.529    797.36903            0   -11531.698     7537.982    -5451.314    576642.72    4820.0187 
20237400    262.51181    0.8777114    5076.0279    7415.2104   -2339.1825    1326.2327    5008.5545    778.78241            0   -11548.552    7542.7792   -5446.9791    576642.72    4725.6798 
20237500    263.92375    0.8777114    4975.2011    7455.0936   -2479.8925    1270.7747    4969.7615    743.05109            0   -11552.251    7538.4061   -5449.6347    576642.72     5004.437 
20237600    259.01948    0.8777114    4916.2737    7316.5621   -2400.2884    1338.5436    4962.2754    764.30635            0   -11555.556    7538.3893   -5448.2468    576642.72    3729.8188 
20237700    261.21189    0.8777114    4955.1623    7378.4914   -2423.3291    1304.0844    4969.5201    762.81233            0   -11541.044    7529.9642   -5448.6655    576642.72    4617.1736 
20237800    265.05991    0.8777114     5148.296    7487.1868   -2338.8908    1354.3461    4984.6641    777.15926            0   -11533.144    7526.2372   -5448.1531    576642.72    4165.9125 
20237900    265.02848    0.8777114    5195.8207    7486.2991   -2290.4784    1324.5771    5021.5895    797.92003            0   -11550.091    7562.5356   -5447.0096    576642.72    4889.5827 
20238000     261.4178    0.8777114    5109.6315    7384.3078   -2274.6764     1382.644    4983.7206    789.03487            0   -11520.401    7534.0653   -5443.7406    576642.72    4860.4158 
20238100    263.75405    0.8777114    5040.8719    7450.3001   -2409.4282    1330.9976    4943.1245    789.35638            0   -11566.493    7537.8533    -5444.267    576642.72    4141.6627 
20238200    261.24723    0.8777114    5023.2954    7379.4896   -2356.1942    1378.1385    4907.7784    760.50982            0    -11514.64    7556.2046   -5444.1855    576642.72    3609.9114 
20238300    262.33303    0.8777114     5035.073    7410.1605   -2375.0874    1329.8992    5009.3752    766.95735            0   -11577.543    7540.8957   -5444.6713    576642.72    4166.3143 
20238400    261.27473    0.8777114     5037.755    7380.2663   -2342.5113    1374.9583    4988.5397    767.40973            0    -11535.38    7510.5124   -5448.5518    576642.72    4016.0367 
20238500    260.78103    0.8777114    5099.9433    7366.3208   -2266.3775    1344.8784    5071.6617    804.77345            0   -11570.351    7531.7389   -5449.0786    576642.72    4362.0812 
20238600    262.35406    0.8777114    5188.0945    7410.7543   -2222.6599    1320.4226    5059.5418    779.07037            0   -11476.501    7540.9404   -5446.1344    576642.72    5333.8827 
20238700    265.11447    0.8777114    5141.0126     7488.728   -2347.7155    1327.3553     4975.402    807.57549            0   -11528.513    7521.3722   -5450.9073    576642.72    3961.0545 
20238800    259.38864    0.8777114    5006.3764    7326.9896   -2320.6132     1334.793    4979.8928    789.12195            0   -11502.432    7526.4943   -5448.4831    576642.72    3847.4467 
20238900    259.98295    0.8777114     4962.807    7343.7774   -2380.9704    1324.6282    5009.3787    790.89043            0   -11585.827    7533.2061   -5453.2471    576642.72    5106.0669 
20239000    262.66034    0.8777114    4974.3328     7419.406   -2445.0732    1336.4265    4906.0518    794.66148            0   -11565.621    7537.0362   -5453.6277    576642.72    4913.7826 
20239100     265.0851    0.8777114    5070.4145    7487.8984   -2417.4839    1299.9502    4950.7473    790.55644            0   -11537.689     7530.839   -5451.8877    576642.72     4267.595 
20239200    264.43985    0.8777114    5191.6664    7469.6719   -2278.0055    1347.4871    4995.1189    801.13088            0   -11503.831    7533.3589   -5451.2699    576642.72    5145.1224 
20239300    263.73813    0.8777114    5107.8617    7449.8504   -2341.9887    1325.5161    4973.0647    782.76737            0    -11495.95    7524.7362   -5452.1231    576642.72    4533.8379 
20239400    261.29704    0.8777114    5006.4429    7380.8965   -2374.4536    1358.2693    4897.8738     800.7388            0   -11523.572    7538.6798   -5446.4435    576642.72    4269.1203 
20239500    260.82363    0.8777114     4994.921     7367.524    -2372.603    1356.8463    4914.5446    780.10611            0   -11516.304    7542.7362   -5450.5323    576642.72    4340.0832 
20239600    262.18525    0.8777114    5024.2494    7405.9859   -2381.7365    1336.2664     4919.275    791.83375            0   -11535.353    7547.2264   -5440.9853    576642.72     3330.022 
20239700    265.20961    0.8777114    5083.7337    7491.4156   -2407.6819    1326.3146     4915.671    769.42035            0   -11523.387    7548.4258   -5444.1263    576642.72    4388.1379 
20239800    264.74126    0.8777114    5168.0491    7478.1861   -2310.1369    1329.3466    5024.9597    756.35249            0   -11524.525    7550.1919   -5446.4631    576642.72    4223.5087 
20239900    262.36708    0.8777114    5160.2177     7411.122   -2250.9043    1321.6337    5054.7219    773.66307            0   -11519.661    7562.0718    -5443.334    576642.72     4324.582 
20240000    260.93404    0.8777114     5014.081    7370.6429   -2356.5619    1356.8265    4887.1842    785.40569            0   -11492.542    7548.6872   -5442.1237    576642.72    3824.4291 
20240100    261.32017    0.8777114    4963.0013      7381.55   -2418.5487    1296.5786    4929.8091    756.27125            0   -11498.868    7540.1185   -5442.4583    576642.72    4064.8146 
20240200     260.8902    0.8777114    4979.8194    7369.4044    -2389.585    1332.3731    4905.3444    764.49817            0   -11476.696    7529.0517   -5444.1563    576642.72    3811.5835 
20240300    263.36775    0.8777114    5099.6384    7439.3882   -2339.7498     1382.221    4947.3524    800.11033            0   -11547.806     7525.172   -5446.7992    576642.72    4148.1861 
20240400    266.75636    0.8777114     5245.398    7535.1069    -2289.709    1347.6664    4981.2256    787.88354            0   -11506.024     7544.638    -5445.099    576642.72    5121.0183 
20240500    266.52799    0.8777114    5208.7986    7528.6561   -2319.8575    1357.6853    4950.4287    783.34358            0   -11500.805    7533.0247   -5443.5347    576642.72    5006.0446 
[...]
20944700    258.25953    0.8777114    4771.2226    7295.0957   -2523.8731    1368.3878    4913.8873    740.62885            0    -11586.76    7491.1874   -5451.2046    576642.72    3508.6143 
20944800    261.93545    0.8777114    4939.6675    7398.9298   -2459.2623    1383.7732    4925.7786    735.24951            0   -11564.617    7509.9843   -5449.4306    576642.72    3556.7782 
20944900    263.67524    0.8777114    5005.9325    7448.0741   -2442.1415    1405.1595    4941.9562    739.34196            0    -11563.68     7485.183   -5450.1027    576642.72    3651.2286 
20945000    262.98696    0.8777114    4975.9514     7428.632   -2452.6806    1338.6371    4933.6668    745.83369            0   -11527.341    7503.4222   -5446.8997    576642.72    4975.1187 
20945100    264.00376    0.8777114    4947.1915    7457.3537   -2510.1623    1349.7163    4909.9048    764.43528            0   -11602.041    7514.5508   -5446.7283    576642.72    3994.7289 
20945200    257.38116    0.8777114    4884.8094    7270.2842   -2385.4748    1351.4904    5049.6766    774.90035            0   -11598.423    7486.3342   -5449.4532    576642.72    3722.8041 
20945300    259.77603    0.8777114    4861.4142    7337.9323   -2476.5181    1311.6075    5022.7559    751.53644            0   -11644.502    7526.8611    -5444.777    576642.72     4605.717 
20945400    262.30584    0.8777114    4962.9229    7409.3924   -2446.4695    1335.0662    4982.8813    758.35501            0   -11607.406    7529.0696    -5444.436    576642.72    4040.9332 
20945500    263.62294    0.8777114    5060.7506    7446.5968   -2385.8462    1375.9312    5034.4379     741.5607            0   -11608.554    7519.1196   -5448.3418    576642.72    4044.8401 
20945600    264.03941    0.8777114    5051.4387    7458.3608   -2406.9221    1310.4604    4996.2888     756.6017            0   -11558.517    7529.1922   -5440.9478    576642.72    4983.8317 
20945700    263.41992    0.8777114    4942.4883    7440.8618   -2498.3735    1308.4878    4935.4997    763.31306            0   -11590.191    7524.4757   -5439.9591    576642.72    3337.6512 
20945800     257.4774    0.8777114    4825.7097    7273.0027    -2447.293    1320.5059    4960.5112    773.29775            0    -11589.54    7527.8986   -5439.9666    576642.72    4126.3257 
20945900    260.61285    0.8777114    4889.8776    7361.5701   -2471.6925    1305.3528     4946.519    741.14642            0   -11555.752    7527.3101   -5436.2692    576642.72    3656.2213 
20946000    265.00161    0.8777114    4962.6202    7485.5402     -2522.92    1363.7364    4919.6778    761.54108            0   -11644.657    7519.1869   -5442.4055    576642.72    2733.5435 
20946100    263.68002    0.8777114    5013.2593    7448.2091   -2434.9498    1364.2921    4958.5354    779.98933            0   -11611.059    7516.3599   -5443.0678    576642.72    3508.7808 
20946200     263.2223    0.8777114    5048.3311    7435.2798   -2386.9487    1376.0933    4974.9295    768.80286            0   -11579.678     7518.825   -5445.9216    576642.72    3898.7855 
20946300    261.88763    0.8777114    4957.9465     7397.579   -2439.6325    1332.0271    4946.3426    773.49509            0   -11545.377    7495.7393   -5441.8595    576642.72    3837.0975 
20946400    261.49045    0.8777114    4842.0674    7386.3599   -2544.2924    1335.3925     4837.603    755.12174            0    -11521.82    7494.8928   -5445.4823    576642.72    4597.7985 
20946500    260.88878    0.8777114    4818.0133    7369.3645   -2551.3512    1328.2789    4894.6225     753.2969            0   -11581.897    7502.5098   -5448.1618    576642.72    5040.6904 
20946600    267.02153    0.8777114    4916.4783    7542.5972   -2626.1189    1303.9319    4891.0057    729.38274            0    -11598.55    7492.0521   -5443.9417    576642.72     5130.759 
20946700    263.32697    0.8777114    5030.5501    7438.2364   -2407.6863    1310.1858    5015.4339    757.52207            0   -11542.616    7497.8379   -5446.0503    576642.72    6401.5254 
20946800    266.18871    0.8777114    5075.2466    7519.0723   -2443.8258    1311.4979      5052.93    738.72988            0   -11605.879    7502.6548   -5443.7589    576642.72    4976.7172 
20946900    260.01158    0.8777114    4890.9542     7344.586   -2453.6318     1295.213    4974.9243    749.22675            0   -11539.781    7501.8749   -5435.0902    576642.72    5149.6665 
20947000    260.87231    0.8777114    4819.6923     7368.899   -2549.2067    1318.0278    4927.2555    752.52759            0   -11596.015    7491.5628   -5442.5657    576642.72    4227.3907 
20947100    262.01741    0.8777114    4859.1623    7401.2449   -2542.0825    1280.0329    4927.8186    771.88303            0    -11555.67    7479.1738   -5445.3208    576642.72    4607.9221 
20947200    262.46083    0.8777114    4962.5537    7413.7702   -2451.2165    1355.0719    4951.1059     747.9916            0   -11550.623    7491.2068   -5445.9698    576642.72    4258.2263 
20947300    263.00731    0.8777114    5031.7277    7429.2067    -2397.479    1313.4441    5015.8315    743.06394            0   -11534.897    7509.8882   -5444.8099    576642.72    4563.6557 
20947400    262.88344    0.8777114    5041.7351    7425.7077   -2383.9726    1320.9361    4964.2754    770.32707            0   -11505.418    7509.0245   -5443.1182    576642.72    5706.4971 
20947500    262.79492    0.8777114    4875.9147    7423.2075   -2547.2927    1308.0569    4883.7776    745.23359            0   -11548.287     7504.878   -5440.9515    576642.72    4686.3055 
20947600    261.70557    0.8777114    4793.7813    7392.4363    -2598.655    1291.6998    4887.4038    713.35851            0   -11574.285    7524.7521   -5441.5845    576642.72    4888.7245 
20947700     262.3459    0.8777114    4860.2467     7410.524   -2550.2772    1302.4561    4926.6147    734.86443            0   -11575.604    7503.6343   -5442.2432    576642.72    3817.0976 
20947800    263.61297    0.8777114    4962.9052     7446.315   -2483.4099     1321.969     4966.703    730.84548            0   -11553.784    7498.9432    -5448.086    576642.72    3500.8331 
20947900    264.37959    0.8777114    5025.8597      7467.97   -2442.1102    1359.3442    4947.1064    760.58383            0    -11574.92    7513.7762   -5448.0011    576642.72    3925.8698 
20948000    262.79867    0.8777114    4988.0478    7423.3134   -2435.2657    1349.1848    4991.7384    771.30071            0   -11601.032    7500.8166   -5447.2743    576642.72     4108.636 
20948100    258.21489    0.8777114    4938.8337    7293.8345   -2355.0008    1347.4386    5021.1896    775.41977            0   -11562.344    7505.3155   -5442.0203    576642.72    4551.0535 
20948200    262.87345    0.8777114     4968.876    7425.4258   -2456.5498    1330.2098    4973.9614    763.69517            0   -11583.767    7498.9473   -5439.5963    576642.72    3607.2522 
20948300    263.08263    0.8777114    4982.5789    7431.3344   -2448.7554    1350.5053    4931.0523    769.24158            0   -11572.621     7517.021   -5443.9542    576642.72    4408.1653 
20948400    263.33867    0.8777114    4989.6576    7438.5668   -2448.9092     1372.209    4977.7994    758.90346            0   -11633.332    7518.7916   -5443.2809    576642.72    3227.6222 
20948500    263.11647    0.8777114    4995.8224    7432.2903   -2436.4679    1391.3133    4903.2282    734.22221            0   -11538.962    7515.6538   -5441.9235    576642.72    3630.4708 
20948600    263.93999    0.8777114    5007.1751    7455.5523   -2448.3772    1344.7042    4956.2758    736.47423            0   -11567.198    7518.5099   -5437.1431    576642.72    4022.0822 
20948700    262.81693    0.8777114    4977.9632     7423.829   -2445.8658    1304.8065    4981.0177    746.56292            0   -11551.358    7512.0837   -5438.9788    576642.72    5086.2638 
20948800    260.92484    0.8777114      4973.83     7370.383   -2396.5529    1308.4647    4974.4715    739.96756            0   -11496.518    7519.0981   -5442.0371    576642.72    5759.2478 
20948900    262.99544    0.8777114    4998.0438    7428.8716   -2430.8278    1373.5531    4973.2558    742.34555            0   -11572.158    7494.8692    -5442.693    576642.72    3148.0347 
20949000    262.94769    0.8777114    4970.7611    7427.5227   -2456.7616    1394.8554    4881.4114    768.67508            0   -11568.613    7505.5371   -5438.6273    576642.72     3703.919 
20949100    258.57794    0.8777114    4886.0337    7304.0897    -2418.056    1337.0711    4946.3896    766.85227            0   -11536.851    7505.6266   -5437.1442    576642.72    4215.9977 
20949200    259.92896    0.8777114    4833.0235    7342.2523   -2509.2287    1335.4387    4905.3669    748.33687            0   -11563.238    7508.8715   -5444.0049    576642.72    2672.0348 
20949300    257.74517    0.8777114    4956.0557    7280.5665   -2324.5108    1372.2932    5051.1914    752.47374            0   -11564.144    7503.7974   -5440.1222    576642.72    3393.5591 
20949400    262.82411    0.8777114    5086.6519    7424.0321   -2337.3802    1362.6662    5042.4542    760.89589            0   -11564.413    7504.7263   -5443.7101    576642.72    3740.8492 
20949500    260.44376    0.8777114    5060.2751    7356.7937   -2296.5187    1325.8995    5094.8443    771.11315            0   -11544.666    7501.0128    -5444.722    576642.72    4499.2392 
20949600    262.21208    0.8777114    4978.6354    7406.7439   -2428.1084    1361.8278    5000.6857    725.79845            0   -11572.323    7498.4935   -5442.5905    576642.72    4182.1899 
20949700    260.94661    0.8777114      4895.52    7370.9979   -2475.4779    1344.2092    4939.4914    739.44714            0   -11555.702    7508.3719   -5451.2958    576642.72    4469.8426 
20949800    259.83199    0.8777114    4890.1703    7339.5131   -2449.3427    1334.5188    4942.6516    742.17918            0   -11529.335     7506.137   -5445.4944    576642.72    4522.1707 
20949900     260.5471    0.8777114    4899.8647    7359.7129   -2459.8482    1378.4327    4888.7111    730.48674            0     -11517.1    7506.0497   -5446.4285    576642.72    4886.1477 
20950000    258.97224    0.8777114    4935.0652    7315.2275   -2380.1623    1414.6298    4971.6102    743.85919            0   -11566.255    7504.6401   -5448.6471    576642.72    3735.8448 
20950100    261.39899    0.8777114    4999.1018    7383.7765   -2384.6747    1412.2575    4969.5228    740.06033            0    -11541.55    7483.8457   -5448.8108    576642.72    3475.2771 
20950200    264.02361    0.8777114     4995.382    7457.9144   -2462.5324    1398.3897    4926.3397     747.2604            0    -11561.97    7477.9916   -5450.5439    576642.72    3692.9368 
20950300    259.08841    0.8777114    4859.7713    7318.5092   -2458.7379     1307.616    5030.8145    768.17051            0   -11603.462    7491.3141   -5453.1912    576642.72    3705.6788 
20950400    258.88672    0.8777114    4793.4646     7312.812   -2519.3474    1365.5203    4929.6855    739.48083            0   -11604.389    7499.9697   -5449.6148    576642.72     3760.288 
20950500    258.55923    0.8777114    4800.3974    7303.5611   -2503.1637    1318.7438    4926.6971    754.33861            0   -11546.764    7493.3184   -5449.4977    576642.72    3909.1273 
20950600    259.25852    0.8777114    4981.5472    7323.3142    -2341.767    1452.4507    4972.5396    766.82635            0    -11583.61    7494.9596   -5444.9329    576642.72    3223.6352 
20950700    263.16599    0.8777114    5007.4937    7433.6891   -2426.1954    1361.9782    4971.4968    733.35309            0    -11566.08    7521.8675   -5448.8114    576642.72    4637.3862 
20950800    262.97946    0.8777114    4962.5713    7428.4203    -2465.849    1363.6157    4948.4865    752.31286            0   -11586.919    7501.8883   -5445.2335    576642.72    4365.0708 
20950900    262.67288    0.8777114    4902.7898    7419.7601   -2516.9703    1325.9734    4929.9486    760.70438            0   -11582.147    7497.3947   -5448.8448    576642.72    4187.6724 
20951000      260.001    0.8777114    4751.5853    7344.2873    -2592.702    1370.3395    4877.1606    757.42303            0   -11621.634    7477.4146   -5453.4056    576642.72    3009.0717 
20951100    257.31602    0.8777114    4681.9748    7268.4442   -2586.4695    1356.4732    4917.9442    746.21733            0   -11645.995    7488.9168   -5450.0256    576642.72    2044.8154 
20951200    262.30719    0.8777114    4786.0828    7409.4305   -2623.3477    1337.5036    4801.6002    738.61969            0   -11547.209    7493.5606   -5447.4232    576642.72    3708.3077 
20951300    259.59432    0.8777114    4862.9719    7332.7995   -2469.8276    1349.1174    4963.3362    743.92555            0   -11570.451    7493.0162   -5448.7724    576642.72    3824.0659 
20951400     262.9506    0.8777114    4938.4565     7427.605   -2489.1485    1354.7374    4930.4591    742.09041            0   -11577.443    7508.7347   -5447.7275    576642.72    4831.1732 
20951500    263.44244    0.8777114    5008.4438    7441.4981   -2433.0543    1354.2022    4973.0725    753.84122            0   -11563.207    7499.7869   -5450.7497    576642.72    4631.5765 
20951600    266.39984    0.8777114    5053.2415    7525.0361   -2471.7946     1310.993     4951.568    759.99795            0   -11563.875    7518.6967   -5449.1747    576642.72     5874.114 
20951700    261.94975    0.8777114    4926.2308    7399.3337   -2473.1029    1331.9881    4965.7646    724.27717            0   -11551.616    7501.6932     -5445.21    576642.72    4484.9289 
20951800    258.71378    0.8777114    4801.0798    7307.9269   -2506.8471    1346.6335    4915.5061     725.5283            0   -11564.097    7513.4247   -5443.8427    576642.72     4551.149 
20951900    262.10925    0.8777114    4803.9574    7403.8393   -2599.8819    1342.1941    4877.0525     733.2395            0   -11605.676    7503.9551    -5450.647    576642.72    3390.2683 
20952000    261.21887    0.8777114      4912.76    7378.6884   -2465.9284    1340.9841    4953.0777    734.97248            0   -11563.936    7512.1136   -5443.1404    576642.72    3845.8123 
20952100    262.50976    0.8777114     5017.636    7415.1524   -2397.5164    1378.6806    4981.7016    750.74166            0   -11567.261    7502.7963   -5444.1753    576642.72     4175.057 
20952200    262.52385    0.8777114    4994.7668    7415.5505   -2420.7838    1363.4536    5036.0142    733.47322            0   -11605.199    7493.5237   -5442.0497    576642.72    4096.7234 
20952300    263.01774    0.8777114     4941.487    7429.5016   -2488.0146    1365.7121    4961.2096    765.94459            0   -11631.692    7495.3234   -5444.5125    576642.72    3139.5234 
20952400    262.10446    0.8777114    4900.4879    7403.7039   -2503.2159    1343.0132     4889.605    746.87001            0   -11549.319    7514.0077   -5447.3929    576642.72    4196.0071 
20952500     259.5071    0.8777114    4920.6896    7330.3358   -2409.6462    1341.2143    5021.1118    738.20356            0   -11577.977    7518.4185   -5450.6178    576642.72    4082.5773 
20952600    262.98439    0.8777114    5079.7327    7428.5596   -2348.8269    1343.7862    4996.2009    736.27554            0   -11491.485    7516.5258   -5450.1301    576642.72    3751.3636 
20952700    269.65122    0.8777114    5119.9776    7616.8783   -2496.9007    1387.2595    4943.2348    733.13363            0    -11633.63    7528.4868   -5455.3855    576642.72    3359.3931 
20952800    264.48973    0.8777114    4971.5688     7471.081   -2499.5122    1361.4689    4925.1783    732.60671            0   -11547.013    7485.6922   -5457.4454    576642.72     5371.296 
20952900    264.89724    0.8777114    4891.3942     7482.592   -2591.1978    1341.0491    4884.5429    747.67845            0   -11599.425    7490.1806   -5455.2236    576642.72    4091.5645 
20953000    259.46215    0.8777114    4863.7968    7329.0662   -2465.2694    1336.7505    5007.2141    736.35944            0   -11571.938    7482.7198   -5456.3747    576642.72    5003.9832 
20953100    262.11666    0.8777114    4903.6161    7404.0486   -2500.4325    1314.7908    4925.8675    735.04462            0   -11536.075    7511.0206   -5451.0805    576642.72    4418.2105 
20953200    266.64077    0.8777114    5028.0045    7531.8416   -2503.8372     1328.235    4963.8264    730.77165            0   -11577.827    7505.5036   -5454.3467    576642.72    4232.7537 
20953300    263.11609    0.8777114    5103.2264    7432.2796   -2329.0532    1378.8711    4944.7377    763.84416            0   -11478.776    7517.7673   -5455.4977    576642.72    5310.7151 
20953400    263.82847    0.8777114    5010.5653    7452.4023    -2441.837    1365.0411    4945.7428    749.94568            0   -11548.898    7504.4481   -5458.1164    576642.72    3789.3788 
20953500    261.85006    0.8777114    4845.5492    7396.5179   -2550.9687    1324.0861    4968.1851    746.04231            0   -11647.491    7514.8143   -5456.6056    576642.72    3026.3063 
20953600    259.35717    0.8777114    4837.1089    7326.1008   -2488.9919    1305.0708    5010.6948    754.97858            0   -11602.941    7499.4267   -5456.2217    576642.72    4180.4942 
20953700    261.65549    0.8777114    4916.7622    7391.0217   -2474.2595    1336.2545    4983.9158    729.38212            0   -11576.608    7506.1977   -5453.4012    576642.72    4173.2478 
20953800    265.73853    0.8777114     5014.645     7506.356    -2491.711    1317.4609    5003.2757    721.84245            0   -11592.141    7508.4829   -5450.6319    576642.72     4959.459 
20953900    262.55477    0.8777114    4990.3457    7416.4239   -2426.0783    1341.8258     4982.822    723.20617            0   -11544.837     7520.682   -5449.7769    576642.72    3034.9577 
20954000    256.87263    0.8777114    4816.6946    7255.9197   -2439.2251    1339.9484    4952.5769    756.38693            0   -11543.657    7508.7768   -5453.2573    576642.72    3117.1825 
20954100    260.01004    0.8777114    4726.5587    7344.5424   -2617.9837    1297.4898    4895.9345    749.27903            0   -11612.889    7502.0936   -5449.8915    576642.72     3244.805 
20954200    259.95429    0.8777114    4813.3649    7342.9679    -2529.603    1382.2854    4910.1222    717.52775            0   -11590.347    7497.8406   -5447.0316    576642.72    3492.1367 
20954300    262.54733    0.8777114    4919.3445    7416.2138   -2496.8693    1355.5714    4993.3254    732.73915            0   -11628.317    7497.8239   -5448.0119    576642.72    3447.4432 
20954400    262.93346    0.8777114    4967.5635    7427.1209   -2459.5574    1352.7256    4974.7823    733.72844            0   -11588.845    7516.4278   -5448.3763    576642.72    5154.6482 
20954500    262.87685    0.8777114     4974.849    7425.5216   -2450.6726    1298.2877    5073.6051    764.02819            0    -11635.31    7497.4914   -5448.7749    576642.72    3921.2805 
20954600    262.16428    0.8777114    4904.2146    7405.3935   -2501.1789    1342.4006    4966.6185     720.4822            0   -11604.093    7520.9648   -5447.5524    576642.72    2932.6674 
20954700    258.62324    0.8777114    4745.3241    7305.3693   -2560.0453    1323.5834    4900.9382    740.05469            0   -11597.026    7519.8209   -5447.4161    576642.72    3211.7522 
20954800     262.2027    0.8777114    4773.3263     7406.479   -2633.1527     1341.459    4888.7314    691.72114            0   -11633.078    7523.0047   -5444.9911    576642.72    2727.5328 
20954900    263.52675    0.8777114    4880.2691    7443.8795   -2563.6104    1294.4133     4943.443    731.29958            0   -11587.696    7501.6138    -5446.684    576642.72     3861.544 
20955000    261.14888    0.8777114    4953.4137    7376.7114   -2423.2977    1387.3708    5006.0945    736.30615            0   -11595.854    7493.0245   -5450.2399    576642.72    2868.3162 
