LAMMPS (31 Mar 2017)
  using 1 OpenMP thread(s) per MPI task
Reading restart file ...
  restart file = 31 Mar 2017, LAMMPS = 31 Mar 2017
  orthogonal box = (0 0 0) to (81.6 70.667 100)
  4 by 3 by 1 MPI processor grid
  16816 atoms
  15360 bonds
  28160 angles
  30720 dihedrals
Finding 1-2 1-3 1-4 neighbors ...
  special bond factors lj:   0          0          0.5       
  special bond factors coul: 0          0          0.5       
  4 = max # of 1-2 neighbors
  6 = max # of 1-3 neighbors
  12 = max # of 1-4 neighbors
  14 = max # of special neighbors
1200 atoms in group gold
15616 atoms in group dynamic
Finding SHAKE clusters ...
  0 = # of size 2 clusters
  4096 = # of size 3 clusters
  256 = # of size 4 clusters
  0 = # of frozen angles
Resetting global fix info from restart file:
  fix style: nvt, fix ID: 0
Ewald initialization ...
WARNING: Using 12-bit tables for long-range coulomb (../kspace.cpp:321)
  G vector (1/distance) = 0.143832
  estimated absolute RMS force accuracy = 0.040371
  estimated relative force accuracy = 0.000121576
  KSpace vectors: actual max1d max3d = 769 8 2456
                  kxmax kymax kzmax  = 7 6 8
All restart file global fix info was re-assigned
Neighbor list info ...
  update every 1 steps, delay 0 steps, check yes
  max neighbors/atom: 30000, page size: 300000
  master list distance cutoff = 22
  ghost atom cutoff = 22
  binsize = 11, bins = 8 7 10
  3 neighbor lists, perpetual/occasional/extra = 3 0 0
  (1) pair lj/cut/coul/long, perpetual, skip from (3)
      attributes: half, newton on
      pair build: skip
      stencil: none
      bin: none
  (2) pair morse, perpetual, skip from (3)
      attributes: half, newton on
      pair build: skip
      stencil: none
      bin: none
  (3) neighbor class addition, perpetual
      attributes: half, newton on
      pair build: half/bin/newton
      stencil: half/bin/3d/newton
      bin: standard
Setting up Verlet run ...
  Unit style    : real
  Current step  : 10200100
  Time step     : 1
Per MPI rank memory allocation (min/avg/max) = 45.42 | 47.52 | 47.72 Mbytes
Step Temp Density TotEng KinEng PotEng E_bond E_angle E_dihed E_impro E_vdwl E_coul E_long Volume Enthalpy 
10200100    365.35282   0.97513831    19848.264     15059.71    4788.5537    2758.2865    9792.9185    1638.5659            0   -13141.148    12497.529   -8757.5975    576642.72    20329.457 
10200200      364.558   0.97513831    20098.118    15026.948      5071.17    2800.3224     10007.73    1601.1262            0   -13136.653    12532.605   -8733.9613    576642.72      20132.3 
10200300    366.51489   0.97513831    20211.516     15107.61     5103.906    2761.2103    10023.097    1631.5433            0   -13083.477    12504.288   -8732.7547    576642.72    21315.615 
10200400    368.24981   0.97513831    20160.178    15179.123    4981.0552    2784.0075    9802.4227    1663.5746            0   -13071.588    12534.804   -8732.1651    576642.72    22354.102 
10200500    362.99002   0.97513831    20044.482    14962.316    5082.1655    2831.9925    9951.4458    1597.5219            0   -13070.235    12507.462   -8736.0214    576642.72    19202.432 
10200600    359.51954   0.97513831    19845.779    14819.264    5026.5152    2774.3676    9875.5293     1662.784            0   -13072.121    12516.655      -8730.7    576642.72    21040.587 
10200700    356.72817   0.97513831    19604.058    14704.205    4899.8526    2750.1755    9883.5956    1615.1575            0   -13162.922    12537.155   -8723.3094    576642.72    20107.686 
10200800    362.27827   0.97513831     19760.16    14932.978    4827.1823     2690.992    9873.9906     1614.909            0   -13180.777    12555.921   -8727.8533    576642.72    20538.897 
10200900    361.95555   0.97513831     19951.26    14919.676    5031.5848    2729.0904    9979.2707    1597.0011            0   -13118.051    12573.314   -8729.0406    576642.72     21243.21 
10201000    367.58275   0.97513831    20108.936    15151.627    4957.3089     2743.493     9910.432    1657.4289            0   -13178.339    12557.745   -8733.4503    576642.72    20155.942 
10201100     366.6947   0.97513831      20164.8    15115.022    5049.7783    2759.9916    10012.863    1600.1179            0   -13143.948    12568.545   -8747.7917    576642.72    19594.173 
10201200    363.51232   0.97513831    20227.015    14983.845    5243.1699    2781.0927    10072.721    1631.7495            0   -13077.647    12564.865    -8729.612    576642.72    20608.879 
10201300    368.12445   0.97513831    20201.346    15173.955    5027.3912     2832.113    9861.8746    1677.9864            0   -13190.365    12573.336    -8727.554    576642.72    19734.251 
10201400    366.08578   0.97513831    20004.428    15089.922    4914.5062    2732.8896    9881.1735    1635.0452            0   -13153.885    12553.353   -8734.0704    576642.72     20197.75 
10201500    363.19757   0.97513831    19867.776    14970.871    4896.9053    2674.0601    9967.8053    1621.8171            0   -13188.428    12561.693   -8740.0426    576642.72    21197.416 
10201600    360.26782   0.97513831    19944.207    14850.108    5094.0994    2844.9804    10000.285    1671.4113            0   -13225.414    12545.738   -8742.9014    576642.72    20259.079 
10201700    368.92499   0.97513831    20240.183    15206.953    5033.2291    2781.6511    9997.5378    1671.0365            0   -13221.065     12552.91   -8748.8414    576642.72    20461.902 
10201800    366.25724   0.97513831    20273.994     15096.99    5177.0041    2814.6405    10029.122    1628.0776            0   -13119.954    12556.026   -8730.9075    576642.72    20081.006 
10201900      367.962   0.97513831    20158.036    15167.259     4990.777    2779.0414    9900.7383    1640.4627            0   -13151.429    12553.439   -8731.4757    576642.72    20030.772 
10202000    363.33239   0.97513831    20004.772    14976.428    5028.3437    2824.1242    9912.0593    1600.4985            0   -13118.536     12546.33   -8736.1321    576642.72    20454.787 
10202100    363.41749   0.97513831    19995.527    14979.936    5015.5906    2746.6989    10040.924    1600.8573            0    -13189.97    12557.364   -8740.2835    576642.72    20644.212 
10202200    368.31615   0.97513831    20266.081    15181.857    5084.2238    2769.1568    10001.199    1628.8248            0   -13133.994    12551.366    -8732.329    576642.72    20063.501 
10202300    369.35642   0.97513831    20389.697    15224.737    5164.9603    2822.5596    10042.799    1615.2928            0   -13138.307    12556.833   -8734.2171    576642.72    20757.679 
10202400    364.26014   0.97513831    20168.861     15014.67    5154.1908    2728.4989    10099.288    1645.4855            0   -13132.407    12570.585   -8757.2594    576642.72    21755.681 
10202500    365.95108   0.97513831    20000.363     15084.37    4915.9932    2753.1872    9895.6273    1620.5852            0   -13159.354    12547.547   -8741.5992    576642.72    20808.947 
10202600    360.32082   0.97513831      19940.2    14852.293     5087.907     2781.215    9986.5769    1694.5826            0   -13178.975    12543.389    -8738.882    576642.72    20495.493 
10202700    365.24968   0.97513831    20044.316    15055.459    4988.8578    2708.2558    10045.928    1626.8531            0   -13190.381    12537.598   -8739.3959    576642.72    21490.046 
10202800    371.52694   0.97513831    20287.614    15314.205    4973.4098     2854.497    9851.4274    1640.0497            0   -13209.192    12574.675   -8738.0473    576642.72    19777.477 
10202900     366.1364   0.97513831    20269.046    15092.009    5177.0371    2775.6995    10044.432    1652.3764            0   -13093.355    12560.456   -8762.5717    576642.72    21060.079 
10203000    365.37157   0.97513831    20178.504    15060.483    5118.0213    2838.4191    10022.518    1631.4575            0   -13153.043    12531.866   -8753.1975    576642.72    18630.237 
10203100    364.45249   0.97513831    20117.852    15022.598    5095.2536    2784.4364    9964.9853    1633.2599            0   -13083.617    12541.487    -8745.298    576642.72     19667.63 
10203200    366.20317   0.97513831    20080.014    15094.761     4985.253    2762.9166    9878.7326    1659.7257            0   -13100.008    12534.688   -8750.8017    576642.72    21063.198 
10203300    368.14836   0.97513831    20009.211    15174.941    4834.2701    2698.4625    9820.5261    1621.9129            0   -13102.953    12533.939   -8737.6175    576642.72    21820.172 
10203400    361.54813   0.97513831    19779.166    14902.882     4876.284    2677.8654    9948.2868    1591.8612            0   -13133.205    12540.955   -8749.4793    576642.72    21913.028 
10203500    360.34135   0.97513831    19844.966    14853.139    4991.8273    2795.1885    9918.7205     1623.566            0   -13151.482    12551.368    -8745.533    576642.72    19479.672 
10203600    363.84146   0.97513831    20092.639    14997.412    5095.2268    2817.8923    10140.806    1586.7872            0   -13218.115    12516.411   -8748.5545    576642.72    19890.342 
10203700     363.3922   0.97513831    20103.447    14978.894    5124.5536    2718.8398    10088.558    1589.3725            0   -13057.073    12532.446   -8747.5906    576642.72     21941.39 
10203800    362.29179   0.97513831    20055.216    14933.535    5121.6811    2806.0622    10079.684    1627.7672            0   -13197.129    12547.575   -8742.2789    576642.72     19000.58 
10203900     361.8066   0.97513831    19974.099    14913.536    5060.5635     2811.352    9924.7986    1594.9136            0   -13065.412    12530.952   -8736.0405    576642.72    19047.164 
10204000    364.11365   0.97513831    19753.844    15008.632    4745.2124    2715.9313    9829.2395    1628.9839            0   -13222.049    12520.587   -8727.4806    576642.72    19237.783 
10204100    362.25304   0.97513831    19603.466    14931.938    4671.5275    2725.6493    9791.2639    1651.0421            0   -13293.003    12528.745   -8732.1707    576642.72      20815.4 
10204200    360.45655   0.97513831    19844.841    14857.887    4986.9539    2777.6659    9939.9247    1665.8012            0   -13188.831    12525.308   -8732.9141    576642.72    20967.084 
10204300    366.59166   0.97513831    19997.951    15110.774    4887.1767    2701.9048     9874.339    1629.5914            0   -13089.644    12516.631   -8745.6453    576642.72    21819.672 
10204400    364.38137   0.97513831    19993.131    15019.667    4973.4642    2744.6538    9973.2741    1658.7841            0   -13186.617    12523.212   -8739.8432    576642.72    19614.706 
10204500    362.37606   0.97513831    19882.034    14937.009    4945.0255     2810.871    9857.3223    1635.0606            0   -13163.903     12542.97    -8737.296    576642.72    20517.571 
10204600    362.38179   0.97513831    19877.839    14937.245    4940.5942    2832.1476    9941.3719    1623.1171            0    -13255.28    12536.569   -8737.3321    576642.72    18480.586 
10204700     364.4592   0.97513831    20084.171    15022.875    5061.2962    2714.0843    10037.116    1625.4015            0   -13117.423    12535.748   -8733.6301    576642.72    20319.324 
10204800    370.56321   0.97513831    20268.529     15274.48    4994.0488    2780.4238    10031.915    1598.1453            0   -13224.545    12545.705   -8737.5952    576642.72    19325.122 
10204900    369.94668   0.97513831    20198.741    15249.067    4949.6736    2809.8658    9870.3371    1619.3999            0   -13194.123    12585.224   -8741.0306    576642.72     20217.04 
10205000    367.99139   0.97513831    20025.591    15168.471    4857.1208    2758.0659     9957.052    1589.2242            0   -13264.661    12565.814   -8748.3742    576642.72    19973.937 
10205100    364.13111   0.97513831    19928.632    15009.352    4919.2802    2749.0703    9906.1382    1643.6452            0   -13157.064     12536.95   -8759.4594    576642.72    21038.384 
10205200    364.78818   0.97513831    19949.586    15036.436    4913.1505     2734.603    9836.0248    1643.5809            0   -13081.695    12533.741   -8753.1043    576642.72    21316.529 
10205300    366.73789   0.97513831    20102.362    15116.802    4985.5595    2805.9789    9939.2225    1584.0783            0   -13116.423    12528.571   -8755.8682    576642.72    21033.169 
10205400    367.82349   0.97513831    20232.061     15161.55    5070.5107    2823.0473    10071.587     1619.791            0   -13234.915    12533.887   -8742.8867    576642.72    21542.494 
10205500    365.08215   0.97513831    20099.088    15048.553    5050.5353    2791.9527    10044.511    1639.6411            0   -13215.016    12539.227   -8749.7817    576642.72    20482.251 
10205600    363.38455   0.97513831    19829.394    14978.579    4850.8155     2752.866    9870.1016    1625.3419            0   -13182.873    12535.719   -8750.3408    576642.72    20017.448 
10205700    364.76318   0.97513831    19836.673    15035.405    4801.2684    2765.7217    9805.7497     1597.709            0    -13157.68    12532.993   -8743.2254    576642.72    20860.572 
10205800    367.34906   0.97513831    20039.804    15141.994    4897.8095    2767.9653    9907.7278    1589.2959            0   -13189.344    12559.207   -8737.0426    576642.72    21164.828 
10205900    365.73122   0.97513831    20145.068    15075.307     5069.761    2877.5073    9970.1722    1612.5291            0   -13204.143    12551.244   -8737.5478    576642.72    20885.528 
10206000    365.46425   0.97513831    20095.017    15064.303    5030.7139    2751.0401    9986.9989    1600.1552            0   -13095.872    12531.301   -8742.9096    576642.72    20245.275 
10206100    363.30257   0.97513831    19903.304    14975.199    4928.1049    2788.2056    9868.1014    1609.4345            0    -13118.87    12527.599   -8746.3657    576642.72    19406.235 
10206200    363.12945   0.97513831    19614.018    14968.064    4645.9543    2675.1799    9772.0483    1594.3758            0   -13171.226    12519.625   -8744.0489    576642.72    18570.494 
10206300    362.74498   0.97513831    19682.838    14952.215    4730.6229     2760.089    9882.2653    1595.6161            0   -13271.993    12513.645   -8748.9995    576642.72    18377.736 
10206400    363.06838   0.97513831    19886.045    14965.546    4920.4988    2726.7201    9948.3857    1571.5259            0   -13104.021    12516.845   -8738.9571    576642.72     20267.57 
10206500    369.12398   0.97513831    20009.396    15215.156    4794.2403    2778.3445    9814.2226    1572.6027            0   -13160.149    12522.424   -8733.2039    576642.72    20179.036 
10206600    366.71965   0.97513831    20038.642     15116.05    4922.5921     2706.899    9972.1104    1591.7817            0   -13125.932    12516.131   -8738.3975    576642.72    20521.314 
10206700    365.90805   0.97513831    20135.914    15082.596     5053.318    2660.7235     10017.26    1656.7414            0   -13074.537    12530.512   -8737.3812    576642.72     21599.76 
10206800    370.02283   0.97513831    20407.087    15252.206    5154.8806    2794.7104    10065.098    1637.7109            0   -13141.399    12519.983   -8721.2225    576642.72    21391.565 
10206900    367.05989   0.97513831    20369.841    15130.075    5239.7662    2811.5697    10131.999    1617.2825            0   -13128.792     12531.61   -8723.9034    576642.72    21577.936 
10207000    368.68909   0.97513831    20105.566     15197.23    4908.3364    2769.3954    9915.9128    1581.5835            0   -13159.949    12535.606   -8734.2127    576642.72    20346.834 
10207100    368.17701   0.97513831    20027.542    15176.122    4851.4198    2730.4997    9891.0574    1623.6205            0   -13188.565    12527.551    -8732.744    576642.72      20449.2 
10207200    365.38577   0.97513831    20012.211    15061.068     4951.143    2796.2765    9866.8807    1606.2294            0   -13128.512    12547.892   -8737.6239    576642.72    21554.531 
10207300    364.30102   0.97513831    20022.606    15016.355     5006.251     2767.885    9999.7157    1617.9173            0   -13175.555    12532.233   -8735.9447    576642.72    20160.818 
10207400    367.66947   0.97513831    20017.989    15155.201    4862.7874    2694.5571    9916.6302    1614.8374            0   -13146.034    12520.194   -8737.3969    576642.72    20822.187 
10207500     363.8296   0.97513831     19979.43    14996.923    4982.5064    2771.6427    9949.3284    1623.7586            0   -13144.519    12514.255   -8731.9601    576642.72    19631.496 
10207600    369.25653   0.97513831    20041.212    15220.619    4820.5931    2727.4174    9881.7082    1571.9221            0   -13163.121    12535.526   -8732.8593    576642.72    19347.988 
10207700    367.47614   0.97513831    20065.047    15147.232    4917.8146    2738.9142    9900.6587    1579.8721            0   -13082.487    12518.057   -8737.2004    576642.72    19621.978 
10207800    363.72123   0.97513831    19959.994    14992.456     4967.538    2744.7492     9910.314    1623.1628            0   -13121.578    12548.038   -8737.1479    576642.72     19664.24 
10207900     361.4028   0.97513831        19805    14896.892    4908.1087    2718.1814    9997.5105    1580.5794            0   -13181.676    12534.332   -8740.8179    576642.72    20214.859 
10208000    364.02463   0.97513831    19853.501    15004.962    4848.5388     2778.609    9859.5744    1602.5523            0   -13162.972    12515.455   -8744.6791    576642.72    19828.719 
10208100    365.70594   0.97513831    20143.648    15074.265    5069.3826    2767.0382    10087.238    1643.9581            0   -13201.113    12513.556   -8741.2938    576642.72    19186.627 
10208200    368.31002   0.97513831    20195.243    15181.605     5013.638    2685.0973    10135.608    1617.2928            0   -13209.526    12531.418   -8746.2519    576642.72    20401.556 
10208300    363.23844   0.97513831    20084.798    14972.556    5112.2422    2843.2927    10020.131    1620.9342            0    -13170.57    12535.573   -8737.1184    576642.72      20151.7 
10208400    362.02133   0.97513831     19942.99    14922.387    5020.6034    2770.8505    10012.676    1614.0582            0   -13196.148    12553.929   -8734.7621    576642.72    19804.156 
10208500    363.85663   0.97513831     19877.81    14998.038    4879.7728    2774.5288    9900.2317    1627.9623            0   -13199.266    12523.067   -8746.7513    576642.72     18917.49 
10208600     366.4664   0.97513831    20193.369    15105.611    5087.7579    2797.6434    9957.7992    1638.5831            0   -13113.441     12541.13   -8733.9561    576642.72    20725.281 
10208700    369.01405   0.97513831    20299.253    15210.624    5088.6283    2747.5173    10071.452    1634.8573            0   -13179.451    12551.842   -8737.5895    576642.72    21191.026 
10208800    365.59333   0.97513831    20131.535    15069.624    5061.9114    2708.6113    10172.549     1627.164            0   -13250.902    12536.583   -8732.0935    576642.72    20154.304 
10208900    362.30417   0.97513831    19915.705    14934.046    4981.6597    2724.1407    10022.899     1623.079            0   -13167.667    12532.974   -8753.7665    576642.72    21004.201 
10209000    367.30358   0.97513831    19887.234     15140.12    4747.1141    2656.0845    9997.4326    1580.3545            0   -13249.516    12522.034   -8759.2752    576642.72    20732.097 
10209100    366.52581   0.97513831    20010.101     15108.06    4902.0407    2791.3823     9913.014    1610.7453            0   -13170.776    12510.628   -8752.9526    576642.72    20328.555 
10209200    369.29536   0.97513831    20307.086     15222.22    5084.8656    2800.0913    10039.108    1646.6311            0   -13160.911    12509.647   -8749.7001    576642.72     20166.07 
10209300    366.75498   0.97513831    20278.935    15117.507    5161.4283    2845.5998    10076.156    1621.3276            0   -13102.053    12478.057   -8757.6582    576642.72      20070.1 
10209400    366.54737   0.97513831     20137.01    15108.949    5028.0611     2881.453    9958.2671    1654.4613            0    -13226.82    12512.301   -8751.6019    576642.72      18645.4 
10209500    367.37332   0.97513831    20000.341    15142.994    4857.3467     2793.021    9876.6076    1623.8244            0   -13204.127    12516.947   -8748.9267    576642.72    18993.756 
10209600     365.6731   0.97513831     19891.57    15072.912    4818.6587    2745.9218    9950.9211    1602.2076            0   -13235.795    12503.282   -8747.8789    576642.72     19125.83 
10209700    362.88422   0.97513831    19882.073    14957.955    4924.1174    2714.1154    10024.984    1605.0578            0   -13191.627    12505.826   -8734.2388    576642.72    21044.808 
10209800    364.92465   0.97513831     20045.25    15042.061    5003.1889    2752.0447    9906.9221    1647.9956            0   -13077.601    12512.283   -8738.4558    576642.72    20613.122 
10209900    371.92886   0.97513831    20308.989    15330.772    4978.2168    2726.7584    10004.177    1599.1586            0   -13141.184    12527.228   -8737.9215    576642.72    20250.968 
10210000    368.48453   0.97513831    20172.889    15188.798    4984.0913    2805.5536    9962.7514    1595.4139            0     -13192.3    12548.782   -8736.1094    576642.72    19528.964 
10210100    360.82984   0.97513831    19982.655    14873.274    5109.3802    2896.5173    9910.2355    1626.9512            0   -13091.411    12513.782    -8746.695    576642.72    18925.073 
10210200    366.08978   0.97513831    19938.239    15090.087    4848.1519    2754.1743    9861.9053     1646.207            0   -13191.509    12521.558   -8744.1844    576642.72    19130.438 
10210300    362.96168   0.97513831    19989.693    14961.148     5028.545    2837.2433    9903.9788    1633.3666            0   -13141.181    12527.147   -8732.0098    576642.72    19425.067 
10210400    368.48755   0.97513831     20232.38    15188.922    5043.4578    2784.3025    10009.294    1640.2696            0   -13148.741    12503.813     -8745.48    576642.72    20027.599 
10210500    370.74787   0.97513831     20312.47    15282.092    5030.3778    2696.6563     10037.55    1626.0506            0   -13097.813    12503.621   -8735.6881    576642.72    22057.886 
10210600    366.36013   0.97513831    20087.907    15101.231    4986.6763    2715.5411    10140.514    1632.6154            0   -13273.175    12497.543   -8726.3619    576642.72     19708.71 
10210700    363.19592   0.97513831    19999.369    14970.803     5028.566    2733.1749    9986.8063    1631.7674            0   -13137.613    12546.104   -8731.6736    576642.72    21369.997 
10210800    364.48245   0.97513831     20048.08    15023.833    5024.2465    2778.6871    9984.9992    1584.4544            0   -13113.956    12520.964   -8730.9025    576642.72    20838.611 
10210900    367.34302   0.97513831    20116.495    15141.745    4974.7496    2720.4459    9985.5902    1623.1897            0   -13145.888    12522.132   -8730.7204    576642.72    19955.484 
10211000    365.49122   0.97513831    20232.664    15065.415    5167.2491    2803.4764    10117.211    1628.1294            0   -13169.154    12518.894    -8731.308    576642.72    19813.354 
10211100    372.23136   0.97513831    20337.748    15343.241    4994.5071    2796.8291    9983.9501    1659.3885            0   -13216.804     12502.42   -8731.2768    576642.72    18911.231 
10211200    365.63069   0.97513831    20119.868    15071.163    5048.7047    2810.9216    9959.6697    1634.0748            0   -13172.424    12537.452   -8720.9894    576642.72    19960.118 
10211300    360.10854   0.97513831    19960.651    14843.542    5117.1091    2802.0171    10106.695    1653.3043            0   -13220.222    12512.321   -8737.0065    576642.72    18338.211 
10211400    361.32443   0.97513831    19981.641    14893.661    5087.9804    2748.5137    10176.196    1600.5039            0   -13208.913    12512.408   -8740.7274    576642.72    20203.944 
10211500    364.26498   0.97513831    20056.716     15014.87    5041.8464    2780.1972    10040.147    1627.8407            0   -13208.598    12529.321   -8727.0607    576642.72    19395.265 
10211600    369.72221   0.97513831    20316.972    15239.815    5077.1572    2729.0959     10065.57     1639.977            0   -13143.782    12517.124   -8730.8285    576642.72    21939.384 
10211700    365.15447   0.97513831     20385.81    15051.534    5334.2759    2807.5418    10146.617    1646.6972            0   -13073.686    12540.218   -8733.1112    576642.72    21950.609 
10211800    367.55505   0.97513831    20211.589    15150.485    5061.1036    2692.9229    10060.439    1630.2808            0   -13103.464     12517.03   -8736.1048    576642.72    22487.143 
10211900    358.78249   0.97513831    20028.425    14788.883    5239.5414    2773.5843    10033.128    1624.7753            0   -13003.096    12541.934   -8730.7839    576642.72    20823.718 
10212000    363.52438   0.97513831    20052.766    14984.342    5068.4238    2810.9855    9940.3396    1626.4057            0   -13147.529    12560.274   -8722.0516    576642.72    18944.312 
10212100    362.90349   0.97513831    20095.526    14958.749     5136.777    2767.5908    10087.147    1664.8656            0   -13218.294    12566.556   -8731.0884    576642.72    19184.765 
10212200    364.05862   0.97513831    20208.912    15006.363    5202.5482    2809.9424    10110.215    1665.6784            0    -13168.01    12530.637   -8745.9148    576642.72    19592.879 
10212300    368.72112   0.97513831    20363.423     15198.55    5164.8728    2749.4888    10028.645    1677.3498            0   -13045.474    12507.525   -8752.6612    576642.72    21988.275 
10212400    367.34627   0.97513831    20224.456    15141.879    5082.5768    2835.7676    9979.6068    1640.3054            0   -13146.329    12514.165    -8740.939    576642.72    20216.394 
10212500    366.43939   0.97513831     20002.86    15104.498    4898.3625    2636.0546    9974.8648    1619.6051            0   -13126.647    12525.491   -8731.0059    576642.72     21386.54 
10212600    362.76166   0.97513831    20016.356    14952.903    5063.4529     2736.396    10048.409    1602.9487            0   -13129.117    12528.634   -8723.8176    576642.72    19979.434 
10212700    364.96526   0.97513831    20096.068    15043.735    5052.3329    2799.3091    9933.9007    1638.8831            0   -13104.097    12513.377   -8729.0394    576642.72    20403.774 
10212800    369.70772   0.97513831    20295.264    15239.217    5056.0471     2738.697     9965.233    1664.3275            0    -13112.75    12520.416   -8719.8765    576642.72    22089.247 
10212900    370.09901   0.97513831    20436.923    15255.346    5181.5772    2724.0914    10135.386    1648.6584            0   -13124.021    12525.153   -8727.6918    576642.72    22108.156 
10213000    365.94051   0.97513831    20228.601    15083.934    5144.6663    2760.8453    10017.358    1646.2171            0    -13081.44    12517.808    -8716.123    576642.72    20202.034 
10213100     362.3694   0.97513831    20011.336    14936.735    5074.6019    2724.8716    9972.7663    1659.2492            0   -13120.276    12551.535   -8713.5436    576642.72    19982.555 
10213200    362.86462   0.97513831    20032.245    14957.147    5075.0982    2817.6685    9956.5118    1619.9278            0   -13124.945    12532.898   -8726.9629    576642.72    19138.222 
10213300    370.74161   0.97513831    20194.772    15281.834    4912.9381    2797.1268    9868.2145    1635.1402            0   -13201.791    12539.682   -8725.4351    576642.72    20459.617 
10213400    364.90242   0.97513831    20262.182    15041.144    5221.0378    2780.5313    10060.382    1656.7394            0    -13076.26    12528.777   -8729.1323    576642.72    22097.449 
10213500    365.82171   0.97513831    20202.286    15079.037    5123.2487    2781.0711    10078.445    1628.5001            0   -13164.192    12526.075   -8726.6505    576642.72    20781.876 
10213600    365.86348   0.97513831    19915.134    15080.759    4834.3746    2729.8812    9904.2524    1630.8112            0   -13211.959    12505.311   -8723.9221    576642.72    20746.012 
10213700    367.23772   0.97513831    19878.025    15137.405    4740.6198    2663.2769    9750.1597    1649.5431            0   -13140.951    12535.679   -8717.0872    576642.72    22503.193 
10213800    362.94294   0.97513831    20014.997    14960.376    5054.6215     2832.023    9994.0284    1624.0169            0   -13189.656    12510.871   -8716.6622    576642.72     19319.54 
10213900    364.37369   0.97513831    20228.666     15019.35    5209.3154    2812.8266    10030.765    1637.9569            0   -13086.359    12528.742    -8714.616    576642.72     20547.36 
10214000    367.52081   0.97513831    20249.976    15149.074    5100.9022    2776.7245    9975.2908    1637.5858            0   -13145.959    12575.383   -8718.1228    576642.72    20135.427 
10214100    368.49047   0.97513831     20176.62    15189.043    4987.5776    2704.9379    9930.8852     1642.285            0   -13128.909    12552.148   -8713.7689    576642.72    21169.581 
10214200    363.53719   0.97513831    20051.534     14984.87    5066.6641    2778.5457    10018.592     1620.094            0   -13187.588    12564.721   -8727.7008    576642.72    20919.796 
10214300    360.75393   0.97513831    19939.522    14870.145    5069.3762    2761.4943    9936.5481     1603.141            0    -13047.77    12536.263   -8720.3006    576642.72    21454.848 
10214400    363.13456   0.97513831    19910.929    14968.274    4942.6551    2718.6619    9947.9428    1617.6847            0   -13157.059    12542.123   -8726.6985    576642.72    19159.128 
10214500    368.53689   0.97513831    20174.677    15190.956    4983.7207    2666.8826    10009.525    1660.9488            0   -13149.755    12515.824   -8719.7042    576642.72    21392.465 
10214600    367.70898   0.97513831    20257.841     15156.83    5101.0111    2816.1586    10000.102    1607.9917            0   -13128.541    12536.433   -8731.1339    576642.72    20002.021 
10214700    369.04069   0.97513831    20118.494    15211.722    4906.7714     2675.918    9997.5128    1601.5316            0   -13171.665    12539.139   -8735.6647    576642.72    21963.423 
10214800    363.55328   0.97513831    19999.616    14985.534    5014.0827    2731.0798    9943.2789    1622.6114            0     -13107.9    12553.565    -8728.552    576642.72    21861.926 
10214900    365.64994   0.97513831    19960.594    15071.957    4888.6374    2756.3919    9924.0646    1580.5249            0   -13188.715    12543.152   -8726.7811    576642.72    20086.211 
10215000    363.77376   0.97513831     19867.99    14994.622    4873.3685    2763.0846    9856.9112    1608.7441            0   -13169.439    12542.605   -8728.5366    576642.72    20507.011 
10215100     362.8606   0.97513831    19853.017    14956.982    4896.0354     2697.868    9882.7469    1619.4046            0   -13096.805    12521.462   -8728.6413    576642.72    21010.425 
10215200    365.50558   0.97513831    20113.211    15066.007    5047.2042    2796.7213    9956.5209     1609.963            0   -13154.749    12561.229   -8722.4811    576642.72    20008.153 
10215300    367.92449   0.97513831    20208.224    15165.713    5042.5109    2821.8147    9930.7195    1640.6522            0     -13119.9    12513.239   -8744.0149    576642.72     19985.53 
10215400    365.92972   0.97513831    20115.933    15083.489    5032.4431    2712.4645    9972.8811    1685.7876            0   -13157.849    12546.574   -8727.4158    576642.72    21660.246 
10215500    366.26118   0.97513831    19947.234    15097.152    4850.0818    2670.3769    9917.6993    1618.6042            0   -13205.093    12558.579   -8710.0854    576642.72    22650.906 
10215600    361.51879   0.97513831    19906.858    14901.673    5005.1848    2689.2386     9987.671    1634.2414            0   -13143.601    12542.553   -8704.9185    576642.72    20641.422 
10215700    367.20466   0.97513831    20192.494    15136.042    5056.4525    2744.2643    9968.4546    1612.1431            0   -13098.785    12543.669   -8713.2936    576642.72     21609.36 
10215800    367.61894   0.97513831    20282.536    15153.119    5129.4176    2780.6216    10060.632     1615.714            0    -13145.08    12543.312    -8725.782    576642.72    19395.651 
10215900    368.00294   0.97513831    20134.567    15168.947    4965.6198       2705.4    9870.3235    1629.0517            0   -13049.347    12537.501   -8727.3097    576642.72    19131.067 
10216000     360.9664   0.97513831    19957.456    14878.903    5078.5523    2777.4379    10003.009    1632.6811            0   -13161.716    12548.178   -8721.0368    576642.72    18775.375 
10216100    362.09066   0.97513831    19914.947    14925.245    4989.7023    2661.8749    9956.5815     1644.365            0   -13067.835    12533.749   -8739.0334    576642.72    21282.598 
10216200    366.33837   0.97513831    20149.313    15100.334    5048.9793    2777.1262     9982.162    1605.0629            0   -13140.476    12559.083   -8733.9789    576642.72    21365.848 
10216300    367.80817   0.97513831    20245.907    15160.919    5084.9885    2703.4703    10035.005    1625.6962            0   -13090.579    12547.039   -8735.6428    576642.72    22410.633 
10216400     364.8381   0.97513831    20190.706    15038.493    5152.2122    2752.4835    10041.505    1639.8961            0   -13095.202    12547.975   -8734.4453    576642.72    22344.414 
10216500    367.18255   0.97513831    20076.149    15135.131    4941.0189    2780.3895    9856.6599    1609.1716            0   -13133.395    12551.898   -8723.7058    576642.72    20310.385 
10216600    363.48266   0.97513831    19946.346    14982.623    4963.7232    2689.6642    9902.6549    1607.6159            0   -13053.403    12536.634   -8719.4429    576642.72    20837.304 
10216700    360.92547   0.97513831    19868.604    14877.216    4991.3879    2701.1217    9904.2352    1649.9206            0   -13074.738    12525.693   -8714.8439    576642.72    21954.737 
10216800    361.09061   0.97513831    19962.307    14884.023    5078.2837    2763.4832    9952.9797    1662.7535            0   -13150.162    12560.982   -8711.7521    576642.72    19958.879 
10216900    365.26719   0.97513831    20216.765     15056.18    5160.5852    2760.4259    10007.489    1641.1839            0    -13073.33    12549.041   -8724.2249    576642.72    21037.847 
10217000    362.48999   0.97513831    20258.329    14941.705    5316.6234    2759.3178     10188.61    1660.5793            0   -13083.113    12524.819   -8733.5898    576642.72    20071.195 
10217100    367.27288   0.97513831    20121.948    15138.854    4983.0938    2777.7352    9900.3312    1621.3305            0    -13109.13    12526.003   -8733.1762    576642.72    21439.217 
10217200     361.5057   0.97513831    19926.373    14901.133    5025.2404    2781.2308    9916.6358    1646.4802            0   -13150.609    12557.083   -8725.5811    576642.72    19276.527 
10217300    364.89988   0.97513831    19938.128     15041.04    4897.0884    2731.0769    9809.6309     1636.818            0   -13141.433     12574.86   -8713.8643    576642.72     20342.57 
10217400    364.33921   0.97513831    20002.723    15017.929    4984.7937    2751.8163     9907.861    1650.3672            0   -13124.855    12526.519   -8726.9148    576642.72    19525.159 
10217500    364.80809   0.97513831    20047.238    15037.256    5009.9815    2785.1464    9949.6255    1600.4002            0    -13122.18    12541.568   -8744.5792    576642.72    20014.159 
10217600     365.9543   0.97513831    20031.108    15084.503    4946.6049     2809.465    9890.1718    1647.9264            0   -13169.492    12509.626   -8741.0924    576642.72    19855.542 
10217700    364.54231   0.97513831    19781.143    15026.301    4754.8418    2711.3941    9787.5461    1627.9631            0   -13157.407    12526.417   -8741.0711    576642.72    20700.166 
10217800    360.17399   0.97513831    19643.856     14846.24    4797.6154    2736.4176    9805.5142    1628.6865            0   -13187.762    12547.651   -8732.8922    576642.72    21294.372 
10217900    364.10062   0.97513831    19819.902    15008.095    4811.8075    2664.6578    9943.1415    1618.8551            0   -13200.259    12526.913   -8741.5008    576642.72    20466.869 
10218000    362.25033   0.97513831     20015.31    14931.826     5083.484    2741.2647    10010.495    1669.1435            0   -13128.788    12537.399   -8746.0303    576642.72    20551.072 
10218100    368.06746   0.97513831    20148.815    15171.607    4977.2089    2727.7769    9942.3043    1683.0604            0   -13162.817    12527.701   -8740.8159    576642.72    21104.509 
10218200    362.86014   0.97513831    20172.444    14956.962     5215.482    2866.9393    9994.6441    1664.0466            0   -13118.792    12539.561   -8730.9175    576642.72    20469.082 
10218300     363.2239   0.97513831    20017.206    14971.956    5045.2498    2639.2664    10001.902    1670.0326            0   -13074.483     12539.42   -8730.8873    576642.72    22004.069 
10218400    360.43683   0.97513831    19762.898    14857.074    4905.8238    2740.4598     9881.219    1643.1566            0   -13133.894    12510.599   -8735.7166    576642.72    21059.957 
10218500    365.02938   0.97513831    19806.124    15046.378     4759.746    2706.7802    9893.1344      1615.37            0   -13268.214    12536.988   -8724.3125    576642.72    20105.138 
10218600    369.45605   0.97513831    19949.697    15228.843    4720.8536     2691.031    9767.4296    1624.7509            0   -13191.296    12555.544   -8726.6053    576642.72    21236.829 
10218700     365.4541   0.97513831    20049.364    15063.884    4985.4799    2811.2188    9857.2185    1658.5658            0   -13151.779    12537.885   -8727.6295    576642.72    20014.226 
10218800    363.64424   0.97513831    20084.511    14989.283    5095.2284    2711.3792    10065.384     1648.188            0   -13164.303    12553.008   -8718.4273    576642.72    20698.645 
10218900    368.63871   0.97513831    20111.697    15195.153    4916.5441    2799.9786    9778.1915     1659.297            0   -13137.165    12544.649   -8728.4071    576642.72    20721.383 
10219000    367.34977   0.97513831    20125.173    15142.023    4983.1492     2715.553    9910.6149    1660.9444            0   -13141.441    12555.574   -8718.0966    576642.72    20871.237 
10219100    364.24918   0.97513831    19973.414    15014.218    4959.1954    2766.5664    9858.4498    1595.6187            0   -13062.089    12518.718   -8718.0681    576642.72    22097.364 
10219200    359.02631   0.97513831    19777.971    14798.934    4979.0374    2784.0735    9980.4089    1641.8486            0   -13215.673    12513.115   -8724.7356    576642.72    19072.466 
10219300    361.33129   0.97513831    19796.228    14893.944    4902.2838    2762.8533    9890.4391    1605.1198            0   -13180.036    12546.321   -8722.4126    576642.72    20911.684 
10219400    363.49976   0.97513831    20031.354    14983.328    5048.0266    2712.0257    9937.2777    1624.5363            0   -13015.505     12522.39    -8732.698    576642.72    21951.453 
10219500    366.45022   0.97513831    20166.793    15104.944    5061.8485    2682.0224    10132.671    1646.7089            0    -13185.54    12520.889   -8734.9033    576642.72    22267.968 
10219600    365.61052   0.97513831    20057.796    15070.332    4987.4639    2694.4519    9989.5587    1633.6376            0   -13112.044    12516.241   -8734.3819    576642.72    21655.946 
10219700    365.61497   0.97513831    19986.152    15070.516     4915.636    2715.7096    9860.0788    1652.8314            0   -13093.738    12510.271   -8729.5168    576642.72    22515.861 
10219800    367.03892   0.97513831    19852.647     15129.21    4723.4362      2652.27    9853.9578    1582.1002            0   -13159.333    12528.084   -8733.6428    576642.72    22847.543 
10219900    362.68747   0.97513831    19600.087    14949.845    4650.2422    2698.8873    9722.6915    1608.8622            0   -13162.162     12515.06   -8733.0973    576642.72    20367.181 
10220000    361.36132   0.97513831    19686.992    14895.182      4791.81    2832.0916    9795.5625    1585.4444            0   -13211.093    12512.456   -8722.6523    576642.72    16345.501 
10220100    361.58134   0.97513831     19918.25    14904.251    5013.9998    2782.4037     9905.045    1632.7455            0   -13093.894    12519.183   -8731.4841    576642.72    20264.188 
10220200    363.64972   0.97513831    19992.362    14989.509     5002.853    2780.3497    9980.7111    1627.4388            0   -13159.391    12515.337   -8741.5925    576642.72    18965.636 
10220300    365.23584   0.97513831    20043.802    15054.888    4988.9141    2679.6101    9979.0957    1637.2168            0   -13086.593    12515.785   -8736.2004    576642.72    20852.669 
10220400    365.31786   0.97513831     19993.25    15058.269    4934.9813    2728.6506    9900.8495    1591.9113            0   -13078.569        12530    -8737.862    576642.72    21178.702 
10220500    365.02891   0.97513831    19852.307    15046.359    4805.9488    2668.1635    9863.0788    1617.8297            0   -13116.636    12510.372   -8736.8597    576642.72    19691.922 
10220600    363.74906   0.97513831    19741.453    14993.603    4747.8499    2670.0441    9749.5654    1598.7066            0   -13043.328    12514.667   -8741.8051    576642.72    21885.834 
10220700    362.99916   0.97513831    19886.798    14962.693    4924.1051    2747.5221    9942.8011    1630.0575            0   -13186.365    12523.359   -8733.2695    576642.72    20162.358 
10220800    361.45092   0.97513831    20157.289    14898.875    5258.4137    2734.0161    10153.344    1647.7217            0   -13099.684    12547.777   -8724.7609    576642.72     20639.37 
10220900    367.73301   0.97513831    20160.094     15157.82    5002.2735    2694.5667     10073.05    1631.7557            0   -13182.671    12531.388   -8745.8166    576642.72    20729.741 
10221000    366.62025   0.97513831    19990.687    15111.953    4878.7342    2646.5124    10021.234     1636.376            0   -13191.501    12516.057   -8749.9441    576642.72    20275.349 
10221100    363.79192   0.97513831     19895.79     14995.37    4900.4194    2711.8347    9851.0774    1660.8112            0   -13104.582     12520.49   -8739.2115    576642.72    20471.673 
10221200    362.00625   0.97513831    19956.041    14921.765    5034.2761    2801.6523    9956.6535    1621.6172            0   -13136.803    12527.376   -8736.2199    576642.72    20005.269 
10221300    366.39996   0.97513831     19980.03    15102.873    4877.1574    2666.4478    9975.4899    1632.2916            0   -13187.369    12537.849   -8747.5511    576642.72     20424.04 
10221400    365.44228   0.97513831    19988.097    15063.398    4924.6993    2692.0961    9962.4701    1629.1008            0   -13136.247    12524.966   -8747.6869    576642.72    20845.786 
10221500    369.82327   0.97513831    20032.562     15243.98    4788.5817    2740.3102    9835.6843    1629.7367            0   -13163.577    12499.459   -8753.0317    576642.72     19466.61 
10221600    367.08147   0.97513831    20062.049    15130.964     4931.085    2754.9119    9894.7587    1646.6294            0   -13101.057    12495.883   -8760.0413    576642.72     20821.57 
10221700    365.09758   0.97513831    19942.192    15049.189    4893.0026    2766.6973    9920.1215    1604.5809            0   -13165.605    12521.984   -8754.7763    576642.72    20773.154 
10221800    358.14766   0.97513831    19785.293    14762.716    5022.5769    2683.0198    10091.858    1644.8559            0   -13147.221    12509.134   -8759.0688    576642.72    21718.464 
10221900    362.79578   0.97513831    19846.803     14954.31    4892.4931    2781.6759    9858.1899    1602.0364            0   -13134.083    12540.705   -8756.0313    576642.72    22068.911 
10222000    367.12071   0.97513831    20118.011    15132.582    4985.4296    2794.5739    9987.2989     1615.473            0   -13179.902    12525.015   -8757.0294    576642.72    19229.788 
10222100    367.14091   0.97513831    20145.237    15133.414    5011.8224    2733.7955    10031.053    1618.9187            0   -13147.512    12531.827   -8756.2602    576642.72    20675.075 
10222200    362.88334   0.97513831    20039.771    14957.919    5081.8523    2816.9904    10015.668    1645.8927            0   -13131.918    12494.448   -8759.2287    576642.72    21370.888 
10222300    364.34514   0.97513831    19933.846    15018.173    4915.6725      2797.02    10018.647     1579.771            0   -13207.222    12493.507    -8766.051    576642.72    21457.015 
10222400    364.48988   0.97513831    19871.365     15024.14    4847.2254    2788.1184    9828.5318    1622.4677            0   -13167.332    12520.349   -8744.9095    576642.72    20340.065 
10222500    361.42121   0.97513831    19617.874     14897.65    4720.2233    2739.9938    9828.1965    1596.7553            0   -13225.727    12530.128   -8749.1231    576642.72    19420.055 
10222600    360.90723   0.97513831    19642.283    14876.464    4765.8191    2767.4327     9712.538      1611.16            0   -13128.765    12544.053   -8740.5991    576642.72    19276.575 
10222700    363.73601   0.97513831    19894.057    14993.066    4900.9915    2737.1136    9873.5363    1607.6016            0   -13113.223    12539.542   -8743.5792    576642.72    20173.215 
10222800    367.47556   0.97513831    19979.284    15147.209    4832.0756    2722.7731    9872.4194    1619.9051            0   -13157.598    12523.993    -8749.417    576642.72    19032.678 
10222900     365.0219   0.97513831    20057.945    15046.069    5011.8761    2744.8502      10017.6    1620.1265            0   -13155.593    12523.017   -8738.1242    576642.72    21222.069 
10223000    366.20998   0.97513831    20084.686    15095.042    4989.6439     2688.112    10048.362    1652.2645            0   -13128.175    12481.864   -8752.7842    576642.72     20227.86 
10223100    368.16367   0.97513831    20077.247    15175.572    4901.6751    2765.5875    9863.5805    1613.3309            0   -13090.146    12492.593   -8743.2715    576642.72    18802.512 
10223200    363.49301   0.97513831    19859.384    14983.049    4876.3348    2813.2488    9864.0566    1615.0961            0   -13164.654    12491.636   -8743.0493    576642.72    19946.229 
10223300     364.9989   0.97513831    19772.022    15045.121    4726.9005    2744.3346    9790.7935    1610.7524            0   -13177.238    12502.151   -8743.8929    576642.72    19662.201 
10223400     364.9812   0.97513831    19909.645    15044.392    4865.2528    2705.1914    9855.7411    1648.3533            0   -13099.972    12507.753   -8751.8143    576642.72    21911.953 
10223500    364.86785   0.97513831    20102.395     15039.72    5062.6755    2685.4025    10098.688     1649.596            0   -13115.847    12497.931   -8753.0949    576642.72    20508.958 
10223600    363.91429   0.97513831    20134.942    15000.414    5134.5278    2772.0311    10073.869    1685.5734            0   -13173.997    12516.803   -8739.7521    576642.72    20919.709 
10223700    362.80631   0.97513831    20058.122    14954.744    5103.3782    2832.4949     9960.279    1632.7335            0    -13090.08    12507.034   -8739.0828    576642.72    21056.057 
10223800    363.28825   0.97513831    19956.477    14974.609    4981.8682     2840.177     9939.458     1623.303            0   -13175.776    12511.907   -8757.2003    576642.72    19890.223 
10223900    361.28476   0.97513831    19877.298    14892.026    4985.2722    2651.8643     10053.13    1660.9419            0   -13134.394    12494.783   -8741.0534    576642.72    21525.513 
10224000    364.25556   0.97513831    19865.855    15014.481    4851.3743    2806.5033    9798.9505     1621.529            0   -13139.929    12503.302   -8738.9819    576642.72    21351.986 
10224100    362.01036   0.97513831    19842.235    14921.935    4920.3001    2676.6843     9862.641     1637.403            0   -13039.596    12518.446   -8735.2784    576642.72     22739.65 
10224200    362.97831   0.97513831    19965.046    14961.833    5003.2124    2678.2557    10022.943    1656.2361            0    -13131.21     12513.09    -8736.102    576642.72    21085.472 
10224300    364.73923   0.97513831    20165.429    15034.418     5131.011    2764.3642    10008.091    1645.5349            0   -13083.944    12520.491    -8723.526    576642.72    20506.863 
10224400     368.7213   0.97513831    20221.573    15198.557    5023.0154    2703.0819     10020.43    1642.2853            0   -13138.706    12523.242   -8727.3179    576642.72    21224.491 
10224500    363.86122   0.97513831    20007.262    14998.227     5009.035    2766.5059    9969.2226    1598.2288            0   -13135.951    12534.454   -8723.4247    576642.72    19959.866 
10224600    363.01659   0.97513831    19849.062    14963.411    4885.6509    2719.0007    9859.5361    1627.2491            0    -13127.79    12532.032   -8724.3773    576642.72    19991.718 
10224700    358.01459   0.97513831    19904.223    14757.231    5146.9918    2870.7754    9953.9827     1678.021            0   -13135.496    12510.302   -8730.5935    576642.72    20244.093 
10224800    367.19278   0.97513831    20025.043    15135.553    4889.4901      2655.04    10044.691    1603.8885            0   -13204.226    12521.962   -8731.8652    576642.72    20430.974 
10224900     365.5757   0.97513831    19958.445    15068.897    4889.5476    2736.9012    9950.7699    1616.4196            0    -13182.12    12504.781   -8737.2037    576642.72    20575.524 
10225000    362.62848   0.97513831    19698.904    14947.414    4751.4899    2686.6011     9722.561    1664.5146            0   -13080.509    12489.859   -8731.5367    576642.72    20494.436 
10225100    359.11997   0.97513831    19616.064    14802.794    4813.2699    2713.6338    9844.5838    1596.4778            0   -13141.629    12525.679   -8725.4752    576642.72    19181.346 
10225200    361.95852   0.97513831    19894.683    14919.798    4974.8847    2685.0026    9923.5079    1628.6848            0   -13051.433    12513.813   -8724.6906    576642.72    20993.635 
10225300    362.78672   0.97513831    19983.583    14953.936    5029.6467    2809.1146    9924.0007    1629.8623            0   -13138.118    12525.828   -8721.0406    576642.72    20137.326 
10225400    364.81994   0.97513831    20033.639    15037.745    4995.8938    2745.1409    9949.6149    1650.6233            0   -13138.422    12517.893   -8728.9564    576642.72    20123.576 
10225500    365.21795   0.97513831    20093.942    15054.151    5039.7912    2734.4738    9995.5674    1642.7386            0   -13126.723    12521.317   -8727.5835    576642.72    20941.951 
10225600    365.49514   0.97513831    20082.041    15065.576    5016.4651    2739.7777    9923.5883    1680.8542            0   -13117.662    12524.393   -8734.4853    576642.72    21697.192 
10225700    365.43012   0.97513831    19914.803    15062.896    4851.9068    2698.3317    9916.5488    1633.4788            0   -13167.542    12510.449   -8739.3591    576642.72    20377.894 
10225800     361.4267   0.97513831    19760.792    14897.877    4862.9152    2631.4182    9950.7857    1675.7086            0   -13160.039    12502.515   -8737.4736    576642.72    21308.538 
10225900    365.06849   0.97513831    19869.197     15047.99    4821.2071    2686.1864    9866.0861    1683.0947            0   -13162.897    12475.146   -8726.4086    576642.72    20534.868 
10226000    369.33683   0.97513831    20173.276    15223.929    4949.3471    2760.2546    9920.5438    1639.7534            0   -13130.423    12492.077   -8732.8584    576642.72     21021.78 
10226100    367.36505   0.97513831    20120.652    15142.653    4977.9985    2801.4639    9920.9809    1653.5516            0   -13156.729     12503.46   -8744.7291    576642.72    21686.118 
10226200    364.71696   0.97513831    19985.109      15033.5    4951.6094    2774.9336    9940.4607    1608.5191            0   -13137.045    12505.627   -8740.8859    576642.72    20997.787 
10226300    366.91581   0.97513831     19798.51    15124.136    4674.3741    2683.0034    9826.0909    1593.5921            0    -13178.59    12500.492   -8750.2139    576642.72    19666.377 
10226400    365.64758   0.97513831    19732.976     15071.86    4661.1169    2654.7688    9811.8188    1600.3334            0   -13169.027     12504.09   -8740.8666    576642.72    18909.466 
10226500    361.80157   0.97513831     19783.73    14913.329     4870.401    2781.7741     9816.511    1617.2136            0   -13110.315    12512.471   -8747.2529    576642.72    21208.914 
10226600    365.97342   0.97513831    19866.343    15085.291    4781.0518    2733.6986    9886.5081    1644.6277            0   -13213.376    12479.476   -8749.8822    576642.72    19271.462 
10226700    364.93518   0.97513831    19914.807    15042.495     4872.312    2755.2538    9881.7699    1614.2876            0   -13119.367    12471.424   -8731.0569    576642.72    20699.502 
10226800    365.05326   0.97513831    19943.035    15047.362    4895.6735    2750.0321    9939.8704    1555.2712            0   -13096.526    12483.582   -8736.5563    576642.72    21172.647 
10226900    366.46626   0.97513831    20005.208    15105.606    4899.6024    2753.4371    9835.7609    1607.1448            0    -13055.04    12494.853   -8736.5535    576642.72    20974.571 
10227000    368.17887   0.97513831    20110.734    15176.199    4934.5357    2755.2439     9977.277    1599.4529            0   -13163.214    12500.985   -8735.2095    576642.72    19087.394 
10227100    371.68686   0.97513831    20172.044    15320.797    4851.2476    2731.3353    9920.5307     1645.644            0   -13152.291    12455.789   -8749.7612    576642.72    18697.929 
10227200    368.00266   0.97513831    20026.372    15168.935    4857.4366    2739.3881    9880.6497    1613.0097            0   -13114.574    12485.307   -8746.3436    576642.72    20278.262 
10227300    361.84274   0.97513831    19780.058    14915.026    4865.0319     2743.479    9957.5836    1662.3955            0   -13232.489    12488.943   -8754.8795    576642.72     19121.67 
10227400    362.69816   0.97513831    19731.112    14950.286    4780.8268    2713.2501    9808.2702    1601.1027            0   -13120.231    12532.161   -8753.7264    576642.72     21540.89 
10227500    365.69785   0.97513831    19868.851    15073.932    4794.9196    2722.1503    9877.7631    1631.9284            0   -13209.525    12511.689   -8739.0864    576642.72    20247.693 
10227600    363.39347   0.97513831    20040.966    14978.946    5062.0192    2720.5618    10002.159    1659.7489            0   -13084.912    12498.698   -8734.2361    576642.72    20893.887 
10227700    364.70441   0.97513831    20071.584    15032.983    5038.6018    2799.9236    9886.8098    1656.5282            0   -13091.903    12525.351   -8738.1079    576642.72    20545.888 
10227800    365.75646   0.97513831    20052.879    15076.348    4976.5314    2692.0552    9993.1204    1649.0885            0   -13150.507    12533.866    -8741.092    576642.72    21458.438 
10227900    363.56261   0.97513831    19932.285    14985.918    4946.3666    2708.8901     10018.19    1607.4994            0    -13165.32    12518.143   -8741.0357    576642.72    20028.378 
10228000    362.55064   0.97513831    19777.177    14944.205    4832.9717    2741.5779    9876.6246    1646.3918            0   -13218.257    12529.356   -8742.7209    576642.72    19900.549 
10228100    362.95744   0.97513831    19855.596    14960.973    4894.6232    2675.8839     9951.559     1647.516            0   -13136.821    12506.084   -8749.5986    576642.72    21083.713 
10228200    368.13544   0.97513831    20152.686    15174.408    4978.2774     2768.167    9891.0029    1669.5006            0   -13103.143    12495.137   -8742.3873    576642.72    20003.508 
10228300    364.93051   0.97513831     20153.91    15042.303    5111.6077    2751.2665    10061.196    1665.2238            0   -13127.682    12514.864   -8753.2598    576642.72    20087.151 
10228400     368.2304   0.97513831    20042.542    15178.323    4864.2194    2773.7582    9790.9391    1654.8959            0   -13103.777    12503.786   -8755.3831    576642.72    19807.388 
10228500    364.07204   0.97513831    19834.215    15006.917    4827.2982    2775.6847    9801.0308    1634.5948            0   -13128.413    12500.884   -8756.4833    576642.72     20000.99 
10228600     360.1094   0.97513831    19855.332    14843.578    5011.7535    2780.8569    9950.7233    1608.6055            0   -13089.172    12518.916   -8758.1763    576642.72     20554.68 
10228700    360.68875   0.97513831    20055.505    14867.459    5188.0461    2731.2844    10083.008    1625.5822            0   -13038.832     12531.25   -8744.2465    576642.72    21578.167 
10228800    366.65323   0.97513831    20148.961    15113.312    5035.6485    2740.2878    10040.627    1646.8203            0   -13176.272    12520.307    -8736.121    576642.72    20714.514 
10228900    365.05819   0.97513831     20107.64    15047.565    5060.0744     2786.609    9875.1818    1673.5407            0   -13061.243    12534.846   -8748.8606    576642.72    20994.616 
10229000     363.4693   0.97513831    19979.405    14982.072    4997.3336    2724.8004    9944.5811    1654.4962            0   -13102.897    12533.388   -8757.0354    576642.72    22043.877 
10229100     361.6719   0.97513831    19879.925    14907.984    4971.9411    2735.1935    9936.9067    1618.8237            0   -13142.686    12564.666   -8740.9629    576642.72     22212.79 
10229200    364.11335   0.97513831     19960.35    15008.619    4951.7304    2676.2571    9997.2446     1612.317            0   -13101.453    12527.692    -8760.327    576642.72    21369.909 
10229300    368.87224   0.97513831    20221.739    15204.779    5016.9597    2698.5365    10044.742    1611.4621            0   -13128.752    12545.373   -8754.4021    576642.72    21193.408 
10229400    367.93568   0.97513831    20182.518    15166.174    5016.3437    2756.9328    10002.392    1619.4742            0   -13153.131    12547.249   -8756.5727    576642.72    20319.197 
10229500    364.25253   0.97513831    20027.485    15014.356    5013.1281    2762.2646    9963.7862    1647.2845            0   -13125.271    12532.447   -8767.3829    576642.72    21065.591 
10229600     364.3779   0.97513831    19993.681    15019.524     4974.157    2819.4521    9886.4683    1602.3299            0   -13114.058    12525.414   -8745.4497    576642.72    20862.665 
10229700    364.65143   0.97513831    20018.193    15030.799    4987.3936    2709.2143    10042.706    1624.8456            0   -13163.918    12513.176   -8738.6297    576642.72    20910.495 
10229800     366.9429   0.97513831    20020.578    15125.252    4895.3257    2774.1829    9900.2715    1620.8274            0   -13225.293    12552.162    -8726.825    576642.72    19780.312 
10229900    365.43833   0.97513831    19969.527    15063.234    4906.2921    2743.1949    9859.6473    1618.9093            0   -13130.489    12547.426   -8732.3971    576642.72    21275.703 
10230000    363.51164   0.97513831    19909.677    14983.817    4925.8598    2683.2217     9990.994    1630.3275            0   -13180.339     12541.76   -8740.1046    576642.72    19981.568 
10230100    359.76762   0.97513831    19730.659     14829.49    4901.1687    2732.0417    9871.3924    1627.8196            0   -13133.297    12531.006   -8727.7945    576642.72    20348.296 
10230200    361.65473   0.97513831    19765.532    14907.276    4858.2558    2704.5487    9939.4441     1627.654            0   -13211.095    12530.452   -8732.7486    576642.72    19780.509 
10230300    364.45526   0.97513831    20010.204    15022.713     4987.491    2747.0993    9979.7306    1602.8092            0   -13136.874    12528.222   -8733.4961    576642.72    21055.341 
10230400    362.65891   0.97513831    20157.746    14948.668    5209.0779    2806.3786    10200.799    1609.1242            0   -13198.743    12513.297   -8721.7778    576642.72    20504.557 
10230500    367.54465   0.97513831    20124.744    15150.056    4974.6881    2726.1498     9985.329    1605.0894            0   -13157.485    12544.747   -8729.1421    576642.72    21216.934 
10230600    360.73995   0.97513831    19994.705    14869.569    5125.1358    2712.0668    10080.293    1670.2535            0   -13135.921    12522.372   -8723.9278    576642.72    20417.449 
10230700    360.48327   0.97513831    19793.076    14858.989    4934.0872    2767.2542    9828.0195    1623.9192            0   -13078.682    12530.905   -8737.3288    576642.72    19131.613 
10230800    362.07352   0.97513831     19606.82    14924.538    4682.2818    2697.5277    9775.1052    1623.2749            0   -13233.356     12555.47   -8735.7403    576642.72    19244.837 
10230900      362.061   0.97513831    19810.597    14924.022    4886.5746    2690.5616    9951.2033    1591.7959            0   -13142.804    12538.084   -8742.2668    576642.72    21639.965 
10231000    365.83259   0.97513831    20002.919    15079.486    4923.4329    2744.1092    9990.6335    1661.8502            0    -13220.99    12497.633   -8749.8032    576642.72    20596.091 
10231100    364.39936   0.97513831    20042.621    15020.409    5022.2122     2827.424    9867.9539    1681.0611            0   -13129.747    12520.482   -8744.9621    576642.72    20326.183 
10231200    366.28083   0.97513831    20065.129    15097.962    4967.1671    2741.6932    9916.0487    1655.2798            0    -13114.61    12507.297   -8738.5409    576642.72    20300.589 
10231300    365.70479   0.97513831    20091.477    15074.218     5017.259    2749.5838     10021.69    1664.6051            0   -13219.117    12536.757   -8736.2593    576642.72    19678.203 
10231400    364.75036   0.97513831    20104.545    15034.877    5069.6685    2810.7337    9914.2679    1655.0231            0    -13098.38    12523.203   -8735.1786    576642.72    22355.808 
10231500    360.84638   0.97513831    20023.656    14873.956    5149.7003    2730.2449    10032.995    1700.5146            0   -13113.842    12535.661   -8735.8736    576642.72    20780.954 
10231600    364.19376   0.97513831    19912.861    15011.934    4900.9267    2719.8372    9939.0861    1668.2796            0   -13196.517    12509.171   -8738.9304    576642.72    20401.074 
10231700    363.50848   0.97513831    19806.613    14983.687    4822.9257    2802.4567    9763.0188    1648.0357            0   -13154.211    12506.764   -8743.1385    576642.72    21378.766 
10231800    363.25067   0.97513831    19879.098     14973.06    4906.0382    2730.8031     9914.594    1648.9689            0   -13163.787    12525.925   -8750.4653    576642.72    21660.679 
10231900    368.06132   0.97513831    20139.525    15171.353    4968.1718    2703.9413    9896.2813    1682.1263            0   -13077.559    12515.673   -8752.2908    576642.72    21062.798 
10232000    364.93833   0.97513831     20152.57    15042.625    5109.9454    2726.0918    10000.352    1698.6978            0   -13096.418    12519.083   -8737.8602    576642.72    20178.279 
10232100    364.84183   0.97513831    20053.061    15038.647    5014.4144    2803.8504    9899.6317    1647.9068            0   -13143.934    12537.707   -8730.7467    576642.72     19688.85 
10232200    360.38028   0.97513831    19840.635    14854.743    4985.8916    2702.9993    9934.0057    1660.3104            0   -13114.344    12536.647   -8733.7276    576642.72    19710.125 
10232300    362.04474   0.97513831     19731.54    14923.352     4808.188    2678.0035    9849.4757    1660.7381            0   -13179.071    12535.711    -8736.669    576642.72    20656.184 
10232400    363.11111   0.97513831    20020.746    14967.307    5053.4384    2720.3813    9977.6161    1674.1358            0   -13113.548     12536.44   -8741.5869    576642.72    22150.593 
10232500    365.57736   0.97513831    20193.476    15068.965    5124.5106    2725.4479    9979.2291    1665.6242            0    -13053.49    12538.977   -8731.2776    576642.72    21620.739 
10232600    367.73608   0.97513831    20142.281    15157.947    4984.3336    2766.4518    9960.5018     1644.126            0   -13200.112    12548.715    -8735.349    576642.72    19320.591 
10232700    362.34792   0.97513831    19953.097    14935.849    5017.2475    2759.0472    9999.1877    1599.8165            0    -13135.92    12537.052   -8741.9359    576642.72     19943.63 
10232800     361.9403   0.97513831      19807.1    14919.047    4888.0528    2764.0645    9870.9611     1616.029            0    -13120.42    12506.029   -8748.6103    576642.72    19944.129 
10232900    365.96145   0.97513831    19888.534    15084.798    4803.7363    2818.7757    9776.7869    1683.0371            0   -13244.035    12524.923   -8755.7512    576642.72    19098.512 
10233000    367.40602   0.97513831    20175.102    15144.342    5030.7605    2760.4257    9994.7419    1622.0496            0    -13135.04    12538.061   -8749.4782    576642.72    20945.557 
10233100    366.65987   0.97513831    20180.197    15113.586    5066.6109    2743.7151    10037.187    1665.1564            0   -13155.013    12528.394   -8752.8283    576642.72    19745.817 
10233200    364.78093   0.97513831    20052.915    15036.137    5016.7784     2736.818     10098.26    1635.3964            0   -13234.571     12535.97   -8755.0945    576642.72    19173.143 
10233300    361.58751   0.97513831    19919.467    14904.505    5014.9617    2694.9695    10013.385    1674.7637            0    -13153.99    12538.002   -8752.1685    576642.72     19988.58 
10233400    360.59665   0.97513831     19915.07    14863.662    5051.4076    2749.0512    9979.4751    1630.6663            0   -13092.691    12530.873    -8745.967    576642.72    19705.421 
10233500    368.81595   0.97513831    20147.951    15202.459    4945.4916    2754.8639    9930.1952    1615.4615            0   -13138.351    12532.322   -8749.0004    576642.72    20463.188 
10233600    370.23452   0.97513831    20281.572    15260.932    5020.6397    2750.5669    9978.8794    1669.3231            0   -13130.271    12508.988   -8756.8473    576642.72    20257.091 
10233700    366.82648   0.97513831    20127.193    15120.453    5006.7394    2702.1803    10069.527    1634.7896            0   -13145.033    12501.639   -8756.3631    576642.72    20757.105 
10233800    362.49226   0.97513831    19966.786    14941.799    5024.9869    2777.5476    9963.0964    1631.9572            0   -13104.063    12509.104   -8752.6558    576642.72    20131.542 
10233900    364.07573   0.97513831    19948.081    15007.069    4941.0127    2761.9709    9944.9264    1634.8575            0   -13149.308    12495.952   -8747.3851    576642.72    20257.657 
10234000    362.78817   0.97513831     19991.22    14953.996    5037.2242    2748.0359    9967.2533    1645.2861            0   -13128.641    12544.901    -8739.611    576642.72    23496.927 
10234100    366.72193   0.97513831     20161.52    15116.144    5045.3756    2779.2541    10040.432    1636.0965            0   -13191.061    12518.634     -8737.98    576642.72    22034.566 
10234200    369.99026   0.97513831    20238.472    15250.863    4987.6086    2777.4532     9990.863    1619.5754            0    -13163.34     12514.39   -8751.3327    576642.72    21217.755 
10234300     363.9643   0.97513831    20048.617    15002.476    5046.1412     2750.386    10045.148    1669.1228            0   -13181.615    12511.412   -8748.3137    576642.72    20029.253 
10234400    361.67452   0.97513831    19839.417    14908.092    4931.3256    2770.2975    9925.3719    1637.1561            0   -13164.994    12505.428   -8741.9339    576642.72     20179.49 
10234500    361.13459   0.97513831    19854.065    14885.836    4968.2293    2739.1266    9999.3029    1617.7871            0   -13159.332    12513.294    -8741.949    576642.72    20655.945 
10234600    365.38692   0.97513831    19997.605    15061.116    4936.4892    2695.5248    10032.591    1670.8058            0   -13207.111     12493.31    -8748.632    576642.72     20487.97 
10234700    365.70876   0.97513831    20228.907    15074.382     5154.525    2777.8885    10133.532    1642.2233            0   -13163.146    12503.465    -8739.438    576642.72    19867.618 
10234800    365.55621   0.97513831    20225.976    15068.094    5157.8826     2824.337    10055.734    1679.1146            0   -13190.719    12522.011   -8732.5955    576642.72    20110.446 
10234900    362.03929   0.97513831    20115.631    14923.128     5192.503    2848.8624    10069.373    1676.8019            0   -13181.538    12525.913   -8746.9096    576642.72    19701.722 
10235000     364.9708   0.97513831    20084.457    15043.963     5040.494    2787.9039    9927.9566    1693.6447            0   -13165.737    12547.067   -8750.3419    576642.72    20328.729 
10235100    361.70722   0.97513831    20063.868    14909.439    5154.4282     2748.863    10107.128    1672.8528            0   -13174.572    12547.884   -8747.7275    576642.72    20024.786 
10235200    364.78301   0.97513831    20035.567    15036.222     4999.345    2769.6601    9963.3575    1622.6363            0    -13140.19     12526.57    -8742.689    576642.72    21504.258 
10235300    363.81223   0.97513831    19859.886    14996.207    4863.6781    2674.6515    10004.531    1640.7746            0   -13162.197    12470.667   -8764.7495    576642.72    20986.726 
10235400    364.50333   0.97513831    19755.137    15024.694    4730.4433    2729.3982    9900.5411    1642.1083            0   -13265.196    12471.313   -8747.7213    576642.72    18548.011 
10235500    365.86307   0.97513831    19872.088    15080.742     4791.346    2720.0185    9806.6353     1593.474            0   -13106.899    12512.648   -8734.5312    576642.72    21166.167 
10235600    366.60468   0.97513831    20160.826    15111.311    5049.5149    2745.0023    9970.8361    1611.2807            0   -13090.291    12546.533   -8733.8462    576642.72     22275.03 
10235700    367.51001   0.97513831    20157.179    15148.628    5008.5506    2774.9121    9955.0191    1659.2071            0   -13165.367     12516.82   -8732.0406    576642.72    20918.972 
10235800    368.60265   0.97513831    20035.749    15193.667    4842.0822     2721.948     9924.178    1620.7458            0   -13228.411    12538.505    -8734.884    576642.72    19962.743 
10235900    362.75202   0.97513831    19877.512    14952.506    4925.0066     2736.782    9996.1131    1631.4374            0    -13219.99    12520.889   -8740.2245    576642.72    20894.154 
10236000    363.93941   0.97513831    19806.048     15001.45    4804.5983    2706.7661    9810.4096    1618.5527            0   -13140.016    12544.499   -8735.6124    576642.72    20789.024 
10236100    365.60466   0.97513831    19939.473    15070.091    4869.3818    2688.8989    9859.5855    1650.3401            0   -13133.803    12540.183   -8735.8229    576642.72     21860.61 
10236200    365.38296   0.97513831    20129.597    15060.952    5068.6445    2703.9154    10044.638    1631.0591            0   -13103.875    12532.617   -8739.7104    576642.72    20995.372 
10236300    364.31825   0.97513831     20168.59    15017.065    5151.5253    2776.0171    10097.049    1661.1668            0   -13168.216    12527.375   -8741.8674    576642.72    20070.466 
10236400    366.98507   0.97513831    20070.215    15126.991    4943.2245    2668.2813    9953.6548    1685.0192            0   -13157.808    12540.299   -8746.2221    576642.72    21093.171 
10236500    360.69606   0.97513831    19859.703     14867.76    4991.9429    2751.8267    9966.0694    1675.3966            0   -13198.536    12535.788   -8738.6015    576642.72    19749.907 
10236600    365.46881   0.97513831    19851.859    15064.491    4787.3683    2769.1013    9791.1086    1625.6635            0   -13176.885    12511.581   -8733.2009    576642.72    20018.239 
10236700    364.67231   0.97513831     20081.33     15031.66    5049.6702    2812.9412    10010.331    1640.8224            0   -13193.909    12506.709   -8727.2246    576642.72    20201.613 
10236800    367.44025   0.97513831    20244.066    15145.753    5098.3132    2779.2667    9951.5462    1669.6023            0   -13101.849    12529.472   -8729.7256    576642.72     21572.03 
10236900    365.72779   0.97513831    20168.834    15075.166    5093.6678    2828.4979    9892.4398     1667.993            0   -13126.556     12549.37   -8718.0773    576642.72    19435.961 
10237000    360.83738   0.97513831     20045.47    14873.585     5171.885    2755.8031     10013.24    1651.0293            0   -13064.731    12530.159   -8713.6147    576642.72    20163.134 
10237100     361.8531   0.97513831    19967.642    14915.453    5052.1899    2768.5928    9867.1339    1653.6077            0   -13052.382    12535.255    -8720.017    576642.72     22317.81 
10237200    367.10348   0.97513831    20025.306    15131.871    4893.4343    2769.8265    9936.4913    1607.7077            0   -13211.306    12515.361   -8724.6459    576642.72    19783.836 
10237300    365.57467   0.97513831    20196.872    15068.855    5128.0173    2775.1211    9937.1855     1682.765            0   -13078.934    12543.193   -8731.3133    576642.72    20419.421 
10237400    367.70164   0.97513831     20304.87    15156.527    5148.3431    2777.5959    9973.4607    1686.0856            0   -13087.866    12532.146   -8733.0792    576642.72    21101.794 
10237500    367.12042   0.97513831    20085.047     15132.57    4952.4775    2720.0267    9965.7795    1628.0588            0   -13192.602    12561.822   -8730.6076    576642.72    20636.768 
10237600    361.65612   0.97513831    19917.627    14907.333    5010.2937    2694.0179    10059.936    1612.5273            0   -13182.658    12554.146   -8727.6766    576642.72    20023.366 
10237700    363.17403   0.97513831    19936.624    14969.901    4966.7228    2716.8186    9963.0879    1687.6076            0   -13240.624    12564.601   -8724.7682    576642.72    18457.314 
10237800    364.30101   0.97513831    20121.969    15016.355    5105.6144    2697.9662    9917.8054    1694.5136            0   -13031.495    12547.898    -8721.074    576642.72    22131.539 
10237900    366.64809   0.97513831    20288.968      15113.1    5175.8682    2812.0335     9965.089    1664.0515            0   -13106.317    12561.422   -8720.4107    576642.72    19952.747 
10238000    364.65606   0.97513831    20228.955     15030.99    5197.9659    2781.8955    10025.418    1670.2907            0   -13132.255    12567.667   -8715.0501    576642.72    20059.234 
10238100    365.42476   0.97513831    20096.177    15062.675    5033.5017    2764.4626      10018.4    1656.4914            0   -13234.879    12556.587   -8727.5592    576642.72    20903.201 
10238200    365.74517   0.97513831    20055.382    15075.882    4979.4993    2829.7179    9796.2828    1708.8422            0   -13150.759    12533.376   -8737.9606    576642.72    21194.499 
10238300    365.31003   0.97513831    20034.539    15057.946     4976.593    2754.4767    9902.0333    1703.3761            0   -13175.075    12535.001   -8743.2193    576642.72    20361.648 
10238400    363.35201   0.97513831      20046.9    14977.237    5069.6623    2755.2712    9948.2412     1654.387            0   -13088.811    12550.442   -8749.8682    576642.72    20936.529 
10238500    365.40034   0.97513831     20303.47    15061.669    5241.8016    2804.4156    10202.807    1671.8075            0   -13247.139    12554.535   -8744.6241    576642.72    19964.689 
10238600    368.93591   0.97513831    20374.408    15207.404    5167.0041    2789.4827    9926.6404     1687.342            0   -13035.602    12551.506   -8752.3642    576642.72     21728.78 
10238700    366.97571   0.97513831     20149.64    15126.605     5023.035    2689.1036    9995.8724    1677.6014            0     -13142.9    12546.038   -8742.6805    576642.72    19568.025 
10238800    362.33887   0.97513831    20004.602    14935.476    5069.1261    2779.4919    9915.4984    1640.6117            0   -13072.588    12537.553   -8731.4417    576642.72     20587.06 
10238900    361.44024   0.97513831    19996.662    14898.435    5098.2269    2778.9851    9964.6287    1637.0668            0   -13110.987    12555.571   -8727.0374    576642.72    20726.239 
10239000    360.79481   0.97513831    19937.248     14871.83     5065.418    2719.9535    9941.6241    1659.6958            0   -13031.222    12507.606    -8732.239    576642.72    21345.947 
10239100    366.31271   0.97513831     19945.12    15099.276     4845.844    2625.9721    9869.6707    1633.2515            0   -13097.971    12537.148   -8722.2265    576642.72    21305.744 
10239200     366.0318   0.97513831    20083.422    15087.697     4995.725      2787.74    9968.3241    1626.8667            0   -13203.635     12539.21   -8722.7804    576642.72    21032.284 
10239300    368.02729   0.97513831    20183.079     15169.95    5013.1282    2774.8128    9975.9892    1605.0552            0   -13167.874    12560.488   -8735.3423    576642.72    21547.525 
10239400    363.96163   0.97513831    20091.442    15002.366     5089.076    2826.3995    10005.652    1649.9529            0   -13191.387    12539.562   -8741.1029    576642.72    19583.986 
10239500     358.4324   0.97513831    19838.603    14774.453    5064.1499     2743.154     9984.749    1648.9166            0   -13086.667    12524.633   -8750.6358    576642.72    20097.994 
10239600    362.72499   0.97513831    19879.845    14951.392    4928.4539    2803.6472    9915.8781    1632.2489            0   -13233.571    12548.189   -8737.9387    576642.72    18822.972 
10239700    367.52328   0.97513831    19996.688    15149.176    4847.5126     2669.144     9821.571    1656.9399            0    -13116.61    12546.851    -8730.384    576642.72    21237.475 
10239800    362.48718   0.97513831    20064.533    14941.589    5122.9442    2732.8748    9966.3608    1699.8621            0   -13087.734    12544.421   -8732.8402    576642.72    20732.563 
10239900    365.05241   0.97513831    20060.033    15047.327    5012.7057    2767.1544    9916.4889    1660.1626            0   -13124.251    12537.029   -8743.8784    576642.72    20117.522 
10240000    364.96427   0.97513831    20034.759    15043.694    4991.0648     2728.699    9998.8272    1655.4235            0   -13205.107    12545.159   -8731.9371    576642.72    19634.978 
10240100    363.90001   0.97513831    19935.072    14999.826    4935.2468    2623.5603    9940.5165    1619.9691            0   -13101.825    12569.166   -8716.1398    576642.72    22611.528 
10240200    359.60846   0.97513831    19727.156     14822.93    4904.2261    2651.0005    9920.9273    1607.3512            0   -13127.987    12569.635   -8716.7009    576642.72    22056.966 
10240300    360.63824   0.97513831    19756.536    14865.377    4891.1599    2725.1721    9888.5389    1649.4576            0   -13199.297     12557.38   -8730.0912    576642.72    19613.967 
10240400    362.59302   0.97513831    20062.321    14945.952    5116.3693       2763.4    10042.861    1659.2165            0   -13157.428    12536.082   -8727.7631    576642.72    21309.843 
10240500    367.23099   0.97513831    20094.598    15137.128    4957.4704    2770.6673    9855.0311    1665.5108            0    -13140.72    12539.013   -8732.0311    576642.72    20792.968 
[...]
11540600    342.36599   0.97513831    17752.426    14112.201     3640.225    2492.2741    9402.9631    1514.2841            0   -13454.898    12457.982     -8772.38    576642.72    18455.066 
11540700    338.15956   0.97513831    17627.937    13938.814    3689.1233     2581.539    9290.4656    1516.7394            0   -13406.558    12468.242   -8761.3047    576642.72    17930.393 
11540800    338.06921   0.97513831    17575.199    13935.089    3640.1098     2553.918     9282.435    1513.4743            0    -13411.01    12464.231   -8762.9382    576642.72    18856.675 
11540900    342.21955   0.97513831    17879.764    14106.165    3773.5988    2626.5637    9400.9361    1524.4589            0    -13472.83    12458.449   -8763.9787    576642.72    17908.547 
11541000    338.66438   0.97513831    17975.737    13959.622    4016.1147    2655.0009    9526.9636    1546.7935            0    -13428.49    12473.337   -8757.4898    576642.72     18588.79 
11541100    341.49377   0.97513831    17917.604    14076.249    3841.3558    2577.6247    9410.9323    1523.8594            0   -13366.077    12446.871   -8751.8548    576642.72    18401.399 
11541200    338.30551   0.97513831    17783.343    13944.829    3838.5137    2613.0406    9404.4651    1508.7007            0   -13386.865    12459.404    -8760.232    576642.72    18990.228 
11541300    337.63469   0.97513831    17615.453    13917.179    3698.2738    2554.1881    9392.0474    1519.2313            0   -13443.547    12433.123   -8756.7693    576642.72    17074.831 
11541400    340.47734   0.97513831    17560.591    14034.352    3526.2397    2505.9821    9136.8876    1530.5305            0    -13337.12    12441.747   -8751.7869    576642.72    19302.111 
11541500    342.76943   0.97513831    17867.058    14128.831    3738.2269    2599.0832    9394.2599    1538.9259            0    -13491.34    12449.035   -8751.7375    576642.72     16997.65 
11541600    342.63863   0.97513831    17951.526    14123.439    3828.0868     2591.946    9448.4005    1542.8461            0   -13412.884    12419.032   -8761.2542    576642.72    17199.765 
11541700    345.61558   0.97513831    17884.178    14246.148    3638.0296    2572.6131    9265.6807    1523.8588            0   -13419.809    12455.615   -8759.9291    576642.72    16576.936 
11541800    337.31998   0.97513831    17697.129    13904.207    3792.9223    2628.5775    9384.0794    1495.8555            0   -13374.476    12417.008   -8758.1222    576642.72    15947.489 
11541900    338.98311   0.97513831    17618.622     13972.76    3645.8619    2552.8975    9290.3247     1531.388            0   -13402.989    12434.226   -8759.9854    576642.72     17446.25 
11542000    341.96688   0.97513831    17741.145     14095.75    3645.3945    2501.7817    9372.8604    1528.9567            0   -13428.726    12439.924    -8769.402    576642.72    18651.959 
11542100    338.49029   0.97513831    17876.546    13952.446    3924.1003    2594.8156    9451.2346    1533.0924            0   -13328.561    12439.469   -8765.9504    576642.72    20160.775 
11542200     344.6857   0.97513831     17907.41    14207.819    3699.5912    2594.3452    9231.6582    1533.3799            0   -13377.541     12467.13   -8749.3815    576642.72    18320.869 
11542300     342.9727   0.97513831    17872.553    14137.209    3735.3433    2578.4357    9336.7133    1498.4517            0   -13384.055    12469.165   -8763.3674    576642.72    19847.861 
11542400    339.91533   0.97513831    17729.969    14011.186    3718.7831    2599.7784    9354.6685    1524.1234            0   -13451.942    12450.156   -8758.0009    576642.72     17818.21 
11542500    335.27373   0.97513831    17595.317    13819.861    3775.4565    2637.8889    9404.9797     1529.606            0   -13460.443    12440.346   -8776.9208    576642.72    16320.179 
11542600    342.06351   0.97513831    17737.319    14099.733    3637.5863    2611.9347    9207.4271    1518.7596            0   -13362.127     12423.67   -8762.0785    576642.72    17242.261 
11542700    346.06592   0.97513831    17997.446    14264.711    3732.7354    2569.2114    9408.2504    1512.8694            0   -13419.742    12414.693   -8752.5472    576642.72     16913.87 
11542800    342.25181   0.97513831    17955.361    14107.495    3847.8666    2543.7976    9540.7756    1505.4969            0   -13433.997    12445.518   -8753.7248    576642.72    18767.524 
11542900    340.48818   0.97513831     17781.76    14034.799    3746.9611    2541.7221    9434.2218    1505.7856            0   -13407.838    12419.347   -8746.2772    576642.72    19570.712 
11543000    342.31184   0.97513831    17701.213    14109.969    3591.2443    2526.0236    9387.0177      1514.08            0   -13512.249    12430.582   -8754.2102    576642.72    17197.879 
11543100    337.43856   0.97513831    17713.868    13909.094    3804.7735     2682.718    9401.6726    1529.0812            0   -13482.655    12423.255   -8749.2983    576642.72    16846.404 
11543200    341.34163   0.97513831    17788.242    14069.977    3718.2641     2560.604    9426.7615    1518.8931            0   -13455.273    12428.863   -8761.5844    576642.72    17117.956 
11543300    344.01178   0.97513831    18071.539     14180.04    3891.4989    2600.0895    9489.4577    1550.9244            0   -13395.166     12405.79   -8759.5967    576642.72    16559.303 
11543400    342.65318   0.97513831    18124.635    14124.039     4000.596    2647.0368    9516.9835    1544.3426            0    -13381.62    12424.912   -8751.0586    576642.72    18278.995 
11543500    342.37662   0.97513831     17984.08    14112.639    3871.4402    2465.1835    9604.5049    1511.5336            0   -13430.223    12471.735   -8751.2935    576642.72    19047.727 
11543600    342.62344   0.97513831    17838.467    14122.813    3715.6534     2612.743    9332.7386    1533.6188            0   -13461.121    12446.287   -8748.6136    576642.72    16604.195 
11543700    341.30901   0.97513831    17735.097    14068.633    3666.4645    2566.7815    9328.0073    1523.3876            0   -13423.372    12426.677   -8755.0169    576642.72    17016.344 
11543800    339.21228   0.97513831     17649.16    13982.206    3666.9532    2609.1823    9376.4933    1539.6152            0   -13535.043    12435.406   -8758.7007    576642.72    17146.039 
11543900     335.7819   0.97513831    17623.423    13840.807    3782.6151    2601.1035    9480.1664    1513.6838            0   -13483.419    12425.403    -8754.323    576642.72    16663.666 
11544000    340.03516   0.97513831    17933.777    14016.125    3917.6512    2620.5447    9563.1186    1534.1991            0   -13477.074    12428.946   -8752.0833    576642.72    18463.137 
11544100    343.68342   0.97513831    18003.946    14166.505    3837.4411    2565.5628    9586.8409    1526.1295            0   -13520.728    12429.558   -8749.9221    576642.72    17209.119 
11544200    343.95593   0.97513831    17842.181    14177.738    3664.4436    2544.4903    9372.6912    1545.7718            0   -13490.501    12439.285   -8747.2936    576642.72    18233.617 
11544300    341.61902   0.97513831    17710.917    14081.411    3629.5051    2531.4703    9326.9653    1540.0174            0   -13478.028    12459.864    -8750.784    576642.72    18698.722 
11544400    339.29229   0.97513831    17708.367    13985.504    3722.8629    2554.4554    9411.6475     1513.665            0   -13461.871    12456.412   -8751.4461    576642.72    18421.326 
11544500    341.60661   0.97513831    17870.579      14080.9    3789.6794    2641.6786    9440.9787    1501.4017            0    -13463.85    12433.653   -8764.1837    576642.72     18734.22 
11544600    346.91887   0.97513831    18095.326    14299.869    3795.4568    2623.1588    9366.3958    1525.1618            0   -13409.018    12454.102   -8764.3443    576642.72    18140.197 
11544700    343.58474   0.97513831    17971.577    14162.438    3809.1389    2548.5214    9473.8375    1551.5554            0   -13436.465    12448.849   -8777.1597    576642.72    18132.837 
11544800    340.50267   0.97513831     17846.98    14035.396    3811.5847    2605.9053    9486.2219    1500.2963            0   -13452.976    12441.498   -8769.3603    576642.72    17820.559 
11544900    341.02208   0.97513831    17746.165    14056.806    3689.3596    2558.7573    9380.7382    1512.4666            0   -13425.272    12440.981   -8778.3113    576642.72    18204.816 
11545000    339.98633   0.97513831    17710.348    14014.112    3696.2359    2570.3062    9444.7635    1521.6639            0   -13507.783    12448.302   -8781.0171    576642.72     18759.55 
11545100    340.46016   0.97513831    17726.582    14033.643    3692.9386    2614.3013    9455.3466    1488.0185            0   -13518.745    12442.412   -8788.3951    576642.72    16662.606 
11545200    343.29291   0.97513831    17897.375    14150.408    3746.9666    2583.5173    9422.0732    1500.4916            0   -13443.175    12463.351   -8779.2919    576642.72    17419.596 
11545300    345.64949   0.97513831    17971.296    14247.546    3723.7502    2588.2343    9330.9298    1514.9721            0   -13397.637    12467.554   -8780.3025    576642.72    18327.564 
11545400    342.00742   0.97513831    17780.418    14097.421    3682.9967     2521.299    9415.0416    1500.0181            0   -13426.425    12452.206   -8779.1431    576642.72    17970.075 
11545500    342.10747   0.97513831    17590.451    14101.545    3488.9061    2499.1478     9426.659    1486.8957            0   -13542.353    12419.813   -8801.2555    576642.72     15547.01 
11545600     339.2011   0.97513831    17582.567    13981.746    3600.8217    2549.9633    9355.1356    1464.3712            0   -13426.253    12445.263   -8787.6581    576642.72    18387.223 
11545700    341.74301   0.97513831    17678.057    14086.522    3591.5355    2520.3646    9374.6147    1514.4068            0   -13491.387    12454.138   -8780.6013    576642.72    17616.309 
11545800    342.04041   0.97513831    17832.398    14098.781    3733.6176    2617.7228     9427.282    1535.9587            0   -13496.484    12432.888   -8783.7489    576642.72    16979.026 
11545900     345.2361   0.97513831    18027.783    14230.506    3797.2775    2612.4744    9425.9922    1565.8923            0   -13436.302    12419.469   -8790.2481    576642.72      18172.1 
11546000    346.74892   0.97513831     18257.48    14292.864    3964.6163    2614.3556    9559.2115    1571.3812            0   -13397.681    12399.222   -8781.8728    576642.72    18852.169 
11546100    343.74384   0.97513831    18050.099    14168.996    3881.1037    2542.5486    9562.2388    1526.8191            0   -13419.305    12436.948   -8768.1465    576642.72    18446.946 
11546200    341.52293   0.97513831    17883.994    14077.451    3806.5433    2550.3546    9443.6083    1526.8477            0   -13387.232    12436.818   -8763.8536    576642.72    18630.035 
11546300    340.67709   0.97513831    17734.619    14042.585    3692.0336    2642.0385    9271.5998    1538.9434            0    -13426.06    12433.821   -8768.3093    576642.72    17553.357 
11546400     339.6978   0.97513831     17653.55    14002.219     3651.331    2592.6174    9221.3224    1506.1067            0   -13327.719    12430.213   -8771.2102    576642.72    17664.192 
11546500    341.76427   0.97513831     17702.52    14087.399    3615.1211    2581.1065    9253.4586    1538.7261            0   -13417.322    12434.828   -8775.6756    576642.72    17806.484 
11546600    344.29369   0.97513831    17943.708     14191.66    3752.0479    2534.3324    9468.9999    1568.1205            0    -13480.05    12434.562   -8773.9163    576642.72    19097.411 
11546700    340.83852   0.97513831    18020.342    14049.239    3971.1032    2655.2967    9477.4514    1599.3903            0   -13443.407    12458.045   -8775.6737    576642.72     17826.67 
11546800    339.59652   0.97513831    17901.726    13998.045    3903.6811    2612.1309    9461.7402     1561.398            0   -13384.943     12437.09   -8783.7346    576642.72    19369.549 
11546900    340.52857   0.97513831     17775.29    14036.463    3738.8273    2593.2779    9367.3729    1581.8249            0   -13423.542    12409.674   -8789.7806    576642.72     18411.71 
11547000    341.59898   0.97513831     17767.71    14080.585    3687.1249    2497.5862    9414.0684    1561.8188            0   -13446.606    12455.358   -8795.1011    576642.72     20047.21 
11547100    339.29018   0.97513831    17758.089    13985.417    3772.6717    2634.1428    9263.9617    1582.1855            0   -13373.591    12455.715   -8789.7418    576642.72    17910.616 
11547200    339.91677   0.97513831    17743.369    14011.245    3732.1245    2587.3162     9407.493    1543.1944            0   -13470.793    12448.815   -8783.9015    576642.72    18788.436 
11547300    339.28445   0.97513831    17684.558    13985.181    3699.3764    2551.6445    9392.4313     1558.826            0    -13461.06     12432.69    -8775.155    576642.72     17482.43 
11547400    338.49924   0.97513831    17693.357    13952.815    3740.5416    2580.3047    9389.6845    1576.2954            0    -13448.54    12425.139   -8782.3412    576642.72    18899.665 
11547500    343.03769   0.97513831    17835.919    14139.888    3696.0309    2592.0219    9354.5693    1573.9423            0   -13467.648    12417.437   -8774.2915    576642.72    19634.161 
11547600    345.21209   0.97513831    17945.792    14229.516    3716.2755    2575.1329     9412.639    1569.0623            0   -13491.704     12418.48   -8767.3342    576642.72    18338.844 
11547700    340.85341   0.97513831    17901.714    14049.853     3851.861    2574.7802    9488.6056    1525.7696            0    -13396.03    12423.236   -8764.5001    576642.72    17602.206 
11547800    340.38628   0.97513831    17649.069    14030.598     3618.471    2561.9343    9307.4945    1551.0224            0   -13475.544     12442.54   -8768.9768    576642.72    17781.482 
11547900    336.24884   0.97513831    17613.049    13860.054    3752.9946    2576.9604    9418.0018    1556.2481            0   -13441.987    12411.938   -8768.1665    576642.72    17438.589 
11548000    338.57447   0.97513831    17807.642    13955.916    3851.7261    2616.8298    9366.9134    1596.6179            0   -13408.958    12440.997   -8760.6741    576642.72    18193.885 
11548100     345.6393   0.97513831    17898.006    14247.126    3650.8802    2572.0808    9347.7422    1543.3529            0   -13478.952    12424.182   -8757.5256    576642.72    16561.297 
11548200    340.19013   0.97513831    17848.783    14022.513    3826.2696      2538.94    9483.7517    1563.9319            0   -13426.161    12427.071   -8761.2636    576642.72    17916.148 
11548300    338.25234   0.97513831    17865.288    13942.638    3922.6501    2563.9819    9482.9061    1540.3333            0   -13355.204    12448.432   -8757.7992    576642.72    19390.631 
11548400    343.90581   0.97513831    17993.657    14175.672    3817.9853    2534.7602    9422.2094     1510.725            0   -13384.269    12486.837   -8752.2768    576642.72    19935.318 
11548500    340.94389   0.97513831    18114.096    14053.583    4060.5135    2612.4681     9672.081    1559.1941            0   -13477.222     12449.67   -8755.6774    576642.72    17836.115 
11548600    338.93343   0.97513831    18017.962    13970.712    4047.2502    2628.3653    9515.9155    1615.3647            0   -13389.706    12438.391   -8761.0811    576642.72    18888.374 
11548700    337.59381   0.97513831    17784.261    13915.494    3868.7676    2617.5749    9417.1194    1548.3786            0   -13402.843    12438.895   -8750.3571    576642.72    17576.778 
11548800    339.80855   0.97513831    17736.984    14006.784    3730.1991    2589.7441    9393.5174    1558.5414            0   -13502.733    12442.556    -8751.427    576642.72    17592.156 
11548900    337.51739   0.97513831    17770.718    13912.343    3858.3741    2572.8773    9404.3941    1566.4236            0   -13352.581    12417.994   -8750.7333    576642.72    18136.465 
11549000    343.66147   0.97513831    17944.722      14165.6    3779.1214    2628.6344    9349.4336    1567.1736            0   -13430.411    12428.197   -8763.9056    576642.72    15853.745 
11549100     342.7562   0.97513831    18124.149    14128.285    3995.8636    2614.4806    9441.1456    1595.6008            0   -13300.074    12422.053   -8777.3416    576642.72    19422.216 
11549200    343.75674   0.97513831    18039.073    14169.527    3869.5457    2646.2051    9446.6305    1568.8207            0   -13466.733    12441.553    -8766.931    576642.72    18407.148 
11549300    337.23681   0.97513831    17805.864    13900.778    3905.0858    2618.6062    9483.5867    1553.4485            0   -13422.004    12433.149   -8761.7006    576642.72     19670.84 
11549400    339.53064   0.97513831    17769.167    13995.329    3773.8377    2646.1163    9387.3823    1525.6007            0   -13474.456    12447.208   -8758.0134    576642.72    16601.875 
11549500    340.92825   0.97513831    17722.783    14052.938     3669.845    2578.9667    9287.8407    1525.7298            0   -13409.928    12443.829   -8756.5937    576642.72    17073.915 
11549600    338.44071   0.97513831    17704.213    13950.402    3753.8103    2600.4235    9298.1851    1548.0495            0   -13396.579    12459.364    -8755.633    576642.72    17776.972 
11549700    341.45439   0.97513831    17865.956    14074.625    3791.3302    2608.9232    9391.6841    1527.1413            0   -13434.701    12461.451   -8763.1683    576642.72    19143.835 
11549800    343.99156   0.97513831    18026.841    14179.207    3847.6342    2609.8642    9384.1863    1553.1846            0   -13386.681    12445.323   -8758.2427    576642.72    20242.264 
11549900    340.75844   0.97513831    17971.857    14045.938     3925.919    2579.1179    9479.0986    1497.4149            0   -13308.459    12438.784   -8760.0371    576642.72    19502.389 
11550000    341.36551   0.97513831    17736.401    14070.962     3665.439    2638.0774     9228.146    1530.8481            0    -13393.77    12436.209   -8774.0714    576642.72    18773.568 
11550100    340.54931   0.97513831    17723.009    14037.318    3685.6908    2523.3294    9355.8715     1549.552            0   -13438.129    12448.953   -8753.8867    576642.72    18506.383 
11550200    338.94572   0.97513831    17784.969    13971.219    3813.7505     2582.468    9416.9865     1516.135            0   -13417.575    12468.472   -8752.7359    576642.72    17883.854 
11550300    340.29067   0.97513831    17894.664    14026.657     3868.007    2595.6673    9477.4551    1519.2789            0   -13412.305    12445.371   -8757.4597    576642.72    17503.606 
11550400    343.20524   0.97513831    17943.596    14146.795    3796.8012    2568.6091    9451.8929    1526.5586            0   -13469.237    12472.793   -8753.8148    576642.72    18123.756 
11550500    341.73895   0.97513831    17688.287    14086.355    3601.9318    2543.6575    9321.9544    1501.2557            0   -13475.807    12459.083   -8748.2114    576642.72    18756.153 
11550600    339.11382   0.97513831    17595.281    13978.148    3617.1327     2532.167    9241.5216    1546.2954            0   -13401.817     12455.46   -8756.4944    576642.72    19487.306 
11550700    338.27988   0.97513831    17661.858    13943.773     3718.085    2486.2535     9453.212    1499.2698            0   -13403.192    12447.215    -8764.673    576642.72    19694.856 
11550800    341.38933   0.97513831    17829.129    14071.943    3757.1861    2641.1071    9286.0958    1527.1657            0   -13392.553    12444.438   -8749.0678    576642.72    17221.112 
11550900    343.22691   0.97513831    17913.188    14147.688    3765.4995    2592.7532    9347.5282    1511.8841            0   -13383.767    12443.129   -8746.0278    576642.72    17825.153 
