LAMMPS (31 Mar 2017)
  using 1 OpenMP thread(s) per MPI task
Reading data file ...
  orthogonal box = (0 0 0) to (81.6 70.667 100)
  4 by 3 by 1 MPI processor grid
  reading atoms ...
  16816 atoms
  scanning bonds ...
  1 = max bonds/atom
  scanning angles ...
  6 = max angles/atom
  scanning dihedrals ...
  9 = max dihedrals/atom
  reading bonds ...
  15360 bonds
  reading angles ...
  28160 angles
  reading dihedrals ...
  30720 dihedrals
Finding 1-2 1-3 1-4 neighbors ...
  special bond factors lj:   0          0          0.5       
  special bond factors coul: 0          0          0.5       
  4 = max # of 1-2 neighbors
  6 = max # of 1-3 neighbors
  12 = max # of 1-4 neighbors
  14 = max # of special neighbors
1200 atoms in group gold
256 atoms in group thiol
15616 atoms in group dynamic
Ewald initialization ...
WARNING: Using 12-bit tables for long-range coulomb (../kspace.cpp:321)
  G vector (1/distance) = 0.143832
  estimated absolute RMS force accuracy = 0.040371
  estimated relative force accuracy = 0.000121576
  KSpace vectors: actual max1d max3d = 769 8 2456
                  kxmax kymax kzmax  = 7 6 8
Neighbor list info ...
  update every 1 steps, delay 0 steps, check yes
  max neighbors/atom: 30000, page size: 300000
  master list distance cutoff = 22
  ghost atom cutoff = 22
  binsize = 11, bins = 8 7 10
  3 neighbor lists, perpetual/occasional/extra = 3 0 0
  (1) pair lj/cut/coul/long, perpetual, skip from (3)
      attributes: half, newton on
      pair build: skip
      stencil: none
      bin: none
  (2) pair morse, perpetual, skip from (3)
      attributes: half, newton on
      pair build: skip
      stencil: none
      bin: none
  (3) neighbor class addition, perpetual
      attributes: half, newton on
      pair build: half/bin/newton
      stencil: half/bin/3d/newton
      bin: standard
Setting up cg style minimization ...
  Unit style    : real
Per MPI rank memory allocation (min/avg/max) = 50.23 | 51.38 | 52.53 Mbytes
Step Temp Press KinEng PotEng TotEng Density 
       0            0     32374630            0     67942442     67942442   0.97513831 
     100            0    13456.212            0    13990.799    13990.799   0.97513831 
Loop time of 5.57561 on 12 procs for 100 steps with 16816 atoms

99.2% CPU use with 12 MPI tasks x 1 OpenMP threads

Minimization stats:
  Stopping criterion = max iterations
  Energy initial, next-to-last, final = 
         67942442.1902      14231.6751512      13990.7991211
  Force two-norm initial, final = 1.98548e+07 1091.53
  Force max component initial, final = 252149 57.6559
  Final line search alpha, max atom move = 0.000621535 0.0358352
  Iterations, force evaluations = 100 144

MPI task timing breakdown:
Section |  min time  |  avg time  |  max time  |%varavg| %total
---------------------------------------------------------------
Pair    | 4.0995     | 4.3635     | 4.5378     |   6.6 | 78.26
Bond    | 0.11264    | 0.12       | 0.12417    |   1.3 |  2.15
Kspace  | 0.86131    | 1.027      | 1.2735     |  12.7 | 18.42
Neigh   | 0          | 0          | 0          |   0.0 |  0.00
Comm    | 0.03659    | 0.05163    | 0.075472   |   5.5 |  0.93
Output  | 3.7909e-05 | 4.4803e-05 | 0.00011492 |   0.0 |  0.00
Modify  | 0.0003159  | 0.00033925 | 0.00035524 |   0.0 |  0.01
Other   |            | 0.01301    |            |       |  0.23

Nlocal:    1401.33 ave 1422 max 1361 min
Histogram: 1 0 0 0 3 2 0 0 2 4
Nghost:    11279.2 ave 11371 max 11209 min
Histogram: 1 2 1 2 2 1 1 0 1 1
Neighs:    2.69553e+06 ave 2.77687e+06 max 2.56752e+06 min
Histogram: 1 0 0 3 1 1 0 2 1 3

Total # of neighbors = 32346348
Ave neighs/atom = 1923.55
Ave special neighs/atom = 8.82969
Neighbor list builds = 0
Dangerous builds = 0
Ewald initialization ...
WARNING: Using 12-bit tables for long-range coulomb (../kspace.cpp:321)
  G vector (1/distance) = 0.143832
  estimated absolute RMS force accuracy = 0.040371
  estimated relative force accuracy = 0.000121576
  KSpace vectors: actual max1d max3d = 769 8 2456
                  kxmax kymax kzmax  = 7 6 8
Setting up Verlet run ...
  Unit style    : real
  Current step  : 100
  Time step     : 1
Per MPI rank memory allocation (min/avg/max) = 49.12 | 50.27 | 51.43 Mbytes
Step Temp Press KinEng PotEng TotEng Density 
     100            0    13456.212            0    13990.799    13990.799   0.97513831 
     200    50.674017    11537.987    2539.8993     8123.915    10663.814   0.97513831 
     300    31.651481    10447.934    1586.4457    4370.4606    5956.9063   0.97513831 
     400    19.627159    10318.129    983.75877    2373.4074    3357.1662   0.97513831 
     500    13.688965    9941.8845    686.12271    922.77818    1608.9009   0.97513831 
     600    11.160354    9490.6284    559.38284   -150.26228    409.12056   0.97513831 
     700    9.5322121    9062.7295     477.7766   -1038.3129   -560.53627   0.97513831 
     800     7.888293    8762.3649    395.37955    -1701.371   -1305.9914   0.97513831 
     900    6.9219352    8547.0838    346.94346   -2236.7942   -1889.8508   0.97513831 
    1000     6.448986    8366.1886    323.23815   -2693.1189   -2369.8808   0.97513831 
    1100    6.1157126    8136.3991    306.53371    -3089.748   -2783.2143   0.97513831 
    1200    5.9808223    7929.9638    299.77269   -3448.6674   -3148.8947   0.97513831 
    1300    5.4789056    7761.9455    274.61546   -3704.2397   -3429.6242   0.97513831 
    1400     5.271912    7659.0228    264.24047   -3905.0462   -3640.8058   0.97513831 
    1500    5.3834408    7595.5718    269.83055   -4081.1929   -3811.3623   0.97513831 
    1600    5.5285605    7470.6016    277.10429   -4256.4732   -3979.3689   0.97513831 
    1700    5.4449953    7342.1288     272.9158   -4385.4329   -4112.5171   0.97513831 
    1800    5.5571154    7280.7035    278.53552   -4502.9354   -4224.3999   0.97513831 
    1900    5.7986807    7257.9634    290.64334   -4606.2836   -4315.6403   0.97513831 
    2000    6.0037049    7201.5677    300.91962   -4699.5149   -4398.5952   0.97513831 
    2100    6.1348741    7131.7486    307.49413   -4787.4938   -4479.9996   0.97513831 
    2200    6.3835122    7112.6718    319.95645   -4863.8701   -4543.9137   0.97513831 
    2300    6.4954996    7067.3227    325.56952   -4922.0292   -4596.4597   0.97513831 
    2400    6.6580546    6985.2974    333.71715   -4988.0304   -4654.3133   0.97513831 
    2500    6.9119895    6962.1843    346.44496    -5040.767    -4694.322   0.97513831 
    2600    7.1493974    6941.3586    358.34439   -5094.5864    -4736.242   0.97513831 
    2700    7.4098287    6928.5504    371.39781   -5137.3238   -4765.9259   0.97513831 
    2800    7.5977083     6882.594    380.81477   -5180.3373   -4799.5226   0.97513831 
    2900    7.7426651    6852.2083    388.08034   -5211.5676   -4823.4873   0.97513831 
    3000    8.0607106     6857.816    404.02153   -5243.3508   -4839.3293   0.97513831 
    3100    8.3083592     6820.378    416.43425   -5281.7327   -4865.2985   0.97513831 
    3200    8.4487363    6733.3569    423.47028   -5316.6271   -4893.1569   0.97513831 
    3300    8.7232359      6709.43    437.22883   -5355.4328    -4918.204   0.97513831 
    3400    8.9622725    6700.2544     449.2099   -5381.3837   -4932.1738   0.97513831 
    3500    9.1318003    6698.1649    457.70703   -5405.8464   -4948.1394   0.97513831 
    3600    9.3052654    6680.4305     466.4015   -5425.5196   -4959.1181   0.97513831 
    3700    9.4287674    6650.7776    472.59171   -5438.0963   -4965.5046   0.97513831 
    3800    9.5967441    6623.8443    481.01109   -5440.8708   -4959.8597   0.97513831 
    3900    9.8739174    6639.5596    494.90366   -5453.4701   -4958.5665   0.97513831 
    4000    10.067784    6627.0705    504.62071   -5463.7703   -4959.1496   0.97513831 
    4100    10.196497    6623.0229     511.0721   -5469.1646   -4958.0925   0.97513831 
    4200    10.422938    6598.8294    522.42184   -5474.2017   -4951.7799   0.97513831 
    4300    10.656322    6563.6753     534.1196   -5492.4247   -4958.3051   0.97513831 
    4400    10.822518    6567.5092    542.44973   -5498.4379   -4955.9881   0.97513831 
    4500    10.866047    6516.3585    544.63148    -5515.916   -4971.2845   0.97513831 
    4600    11.073455    6526.5533    555.02728     -5519.72   -4964.6927   0.97513831 
    4700    11.333259    6525.7785    568.04922   -5525.2361   -4957.1869   0.97513831 
    4800     11.51654    6538.2998    577.23574   -5534.4261   -4957.1904   0.97513831 
    4900    11.672463    6521.7238    585.05093   -5544.0216   -4958.9706   0.97513831 
    5000    11.835778     6480.622    593.23669    -5557.028   -4963.7913   0.97513831 
    5100    11.783323    6431.1015    590.60748   -5559.6869   -4969.0795   0.97513831 
    5200     12.15876    6446.9738    609.42527   -5554.8628   -4945.4375   0.97513831 
    5300     12.21693      6421.68    612.34089   -5562.3438   -4950.0029   0.97513831 
    5400    12.458032    6409.1744    624.42548   -5569.2225    -4944.797   0.97513831 
    5500    12.510457    6422.8829    627.05314   -5576.7049   -4949.6517   0.97513831 
    5600    12.732199      6432.82    638.16738   -5596.3082   -4958.1408   0.97513831 
    5700    12.905769    6420.4014    646.86709   -5579.2221    -4932.355   0.97513831 
    5800    12.962984    6381.3468    649.73485   -5590.9216   -4941.1868   0.97513831 
    5900    13.090996    6373.4198    656.15111   -5603.1427   -4946.9916   0.97513831 
    6000    13.388777    6361.1913    671.07658   -5618.4513   -4947.3747   0.97513831 
    6100    13.546794     6330.034    678.99675   -5617.9911   -4938.9943   0.97513831 
    6200    13.665564     6329.223     684.9498   -5615.5774   -4930.6276   0.97513831 
    6300    13.810573     6332.505    692.21798   -5627.1566   -4934.9387   0.97513831 
    6400    13.761031    6311.9601    689.73484   -5612.6867   -4922.9519   0.97513831 
    6500    14.076526    6332.4663    705.54818   -5627.2199   -4921.6717   0.97513831 
    6600    14.067078     6313.534     705.0746   -5624.4884   -4919.4138   0.97513831 
    6700    14.208948    6284.9904    712.18545   -5639.8211   -4927.6357   0.97513831 
    6800    14.337883    6293.0607    718.64796   -5644.8133   -4926.1653   0.97513831 
    6900    14.423468    6301.0381    722.93768    -5647.438   -4924.5003   0.97513831 
    7000    14.498107    6237.9441    726.67879   -5642.7026   -4916.0238   0.97513831 
    7100    14.631461    6250.8259    733.36277    -5651.901   -4918.5382   0.97513831 
    7200    14.785752    6257.0901     741.0962   -5653.6461   -4912.5499   0.97513831 
    7300    15.117671    6256.3825    757.73275   -5661.2709   -4903.5382   0.97513831 
    7400     14.99735    6273.8105      751.702   -5680.6365   -4928.9345   0.97513831 
    7500    15.207383    6263.1042    762.22933   -5664.9972   -4902.7679   0.97513831 
    7600    15.285054    6229.4818    766.12238   -5686.6657   -4920.5434   0.97513831 
    7700    15.368734    6277.2161    770.31659   -5691.5122   -4921.1956   0.97513831 
    7800    15.616112    6241.6155    782.71579   -5701.7114   -4918.9956   0.97513831 
    7900    15.642375    6188.2573    784.03216   -5701.2854   -4917.2532   0.97513831 
    8000    15.840558    6166.5055    793.96551   -5711.1647   -4917.1992   0.97513831 
    8100     15.87005    6216.5345    795.44375   -5720.4929   -4925.0492   0.97513831 
    8200    15.875146    6236.4448    795.69918   -5727.2979   -4931.5988   0.97513831 
    8300    15.960662    6190.3128     799.9854   -5727.1651   -4927.1797   0.97513831 
    8400    16.268687    6172.6834    815.42435   -5740.7795   -4925.3552   0.97513831 
    8500    16.473198    6137.8265     825.6749   -5745.5509   -4919.8761   0.97513831 
    8600    16.487523    6166.0887    826.39293   -5744.6011   -4918.2082   0.97513831 
    8700    16.438126    6176.9054    823.91704    -5758.393   -4934.4759   0.97513831 
    8800     16.50139     6110.526    827.08798    -5761.708     -4934.62   0.97513831 
    8900    16.515682    6119.3135     827.8043   -5774.6686   -4946.8643   0.97513831 
    9000    16.681325    6105.7842    836.10673    -5785.737   -4949.6303   0.97513831 
    9100    16.881347    6098.8087    846.13232   -5782.5753    -4936.443   0.97513831 
    9200    16.851479     6120.593    844.63524   -5784.1376   -4939.5024   0.97513831 
    9300    17.242684     6072.111    864.24334   -5794.8096   -4930.5662   0.97513831 
    9400    17.147147    6061.7961    859.45479   -5801.8612   -4942.4064   0.97513831 
    9500    17.256942    6065.2061    864.95801   -5800.1158   -4935.1578   0.97513831 
    9600    17.452057    6102.7815    874.73759    -5807.226   -4932.4884   0.97513831 
    9700    17.471853    6051.5506    875.72985   -5809.8139   -4934.0841   0.97513831 
    9800    17.615302    6051.9074    882.91981   -5824.5902   -4941.6704   0.97513831 
    9900      17.5186    6059.4267    878.07288   -5817.9703   -4939.8974   0.97513831 
   10000     17.80506    6030.2254    892.43095   -5824.3603   -4931.9293   0.97513831 
   10100    17.864617    6012.7038    895.41609   -5820.0393   -4924.6232   0.97513831 
   10200    18.084988    6053.1084    906.46157   -5849.8129   -4943.3513   0.97513831 
   10300    18.009347    6010.7139    902.67025   -5843.2028   -4940.5326   0.97513831 
   10400    18.086336    6021.9528    906.52913   -5843.8556   -4937.3264   0.97513831 
   10500    18.246588    5997.6181    914.56135   -5855.6142   -4941.0529   0.97513831 
   10600     18.18563    5961.2579    911.50596   -5860.7411   -4949.2352   0.97513831 
   10700    18.307332    6036.5148    917.60595   -5870.1339   -4952.5279   0.97513831 
   10800    18.436212    5965.5202    924.06575   -5867.0268   -4942.9611   0.97513831 
   10900    18.405066    5970.6675    922.50461   -5866.2002   -4943.6956   0.97513831 
   11000    18.624764    5975.2006    933.51638   -5868.5534    -4935.037   0.97513831 
   11100    18.798246    5950.8004    942.21174    -5871.859   -4929.6473   0.97513831 
   11200     18.69863    5962.7745    937.21874   -5880.9911   -4943.7723   0.97513831 
   11300    19.050117    5982.1264    954.83607    -5910.909   -4956.0729   0.97513831 
   11400    19.011438    5959.1138    952.89739   -5899.8147   -4946.9173   0.97513831 
   11500    19.180133    5982.3989    961.35278   -5907.5386   -4946.1859   0.97513831 
   11600    19.252706    5960.4078    964.99029   -5919.7212   -4954.7309   0.97513831 
   11700    19.358815    5953.7016    970.30873   -5920.1096   -4949.8009   0.97513831 
   11800    19.436744    5984.6991    974.21473   -5923.8335   -4949.6188   0.97513831 
   11900    19.341725    5968.6979    969.45217   -5923.5993   -4954.1472   0.97513831 
   12000     19.65074    5941.9951     984.9407   -5936.4919   -4951.5512   0.97513831 
   12100    19.760345    5948.1597    990.43434   -5928.5683   -4938.1339   0.97513831 
   12200    19.468825    5944.2151     975.8227   -5939.2566   -4963.4339   0.97513831 
   12300    19.685361    5855.9814      986.676   -5935.1805   -4948.5045   0.97513831 
   12400    19.835003    5858.9695    994.17641   -5944.2385   -4950.0621   0.97513831 
   12500    19.911289    5881.6554    998.00004   -5948.6164   -4950.6164   0.97513831 
   12600    20.230673    5918.9161    1014.0083   -5966.4697   -4952.4614   0.97513831 
   12700    20.285802    5866.2285    1016.7715    -5964.496   -4947.7245   0.97513831 
   12800    20.178309    5889.1864    1011.3837   -5959.8681   -4948.4844   0.97513831 
   12900    20.274727    5833.3222    1016.2164   -5960.6925   -4944.4761   0.97513831 
   13000    20.382305    5794.2976    1021.6084   -5973.6967   -4952.0883   0.97513831 
   13100    20.313481    5873.0533    1018.1588   -5984.0516   -4965.8928   0.97513831 
   13200    20.726655    5828.5206    1038.8681    -5987.203   -4948.3349   0.97513831 
   13300    20.606428    5794.8112     1032.842   -5981.4136   -4948.5716   0.97513831 
   13400    20.905881    5861.5401    1047.8513   -5996.2412   -4948.3899   0.97513831 
   13500    20.813555    5860.2798    1043.2237   -6015.0207    -4971.797   0.97513831 
   13600    20.884233     5872.594    1046.7663   -6019.4681   -4972.7018   0.97513831 
   13700    20.929097    5800.4796    1049.0149   -6036.8172   -4987.8023   0.97513831 
   13800    21.202394    5812.4707    1062.7132   -6019.6121   -4956.8989   0.97513831 
   13900    21.074305    5791.0743    1056.2931   -6032.6811    -4976.388   0.97513831 
   14000    21.289446    5793.9507    1067.0764    -6043.284   -4976.2075   0.97513831 
   14100    21.234941    5792.3586    1064.3445    -6042.501   -4978.1564   0.97513831 
   14200    21.100679    5755.4789     1057.615   -6039.4408   -4981.8258   0.97513831 
   14300    21.290545    5819.3364    1067.1315   -6048.6483   -4981.5168   0.97513831 
   14400    21.530021    5827.8404    1079.1346   -6053.5544   -4974.4197   0.97513831 
   14500    21.552912    5734.0755     1080.282   -6058.9302   -4978.6482   0.97513831 
   14600    21.538211    5769.5696    1079.5451   -6065.5648   -4986.0197   0.97513831 
   14700    21.422318    5720.0086    1073.7363   -6046.7243    -4972.988   0.97513831 
   14800    21.745579    5701.3713    1089.9389    -6051.127   -4961.1881   0.97513831 
   14900    21.963653    5790.1639    1100.8693   -6063.8038   -4962.9345   0.97513831 
   15000    22.014716    5753.9914    1103.4287   -6060.0116   -4956.5829   0.97513831 
   15100    21.954537    5776.4606    1100.4124   -6059.4237   -4959.0113   0.97513831 
   15200    22.157939    5798.0722    1110.6073   -6074.2347   -4963.6273   0.97513831 
   15300    22.056355    5724.3377    1105.5157   -6071.0551   -4965.5394   0.97513831 
   15400    22.009291    5680.5797    1103.1567   -6069.0117    -4965.855   0.97513831 
   15500    22.244007    5707.8767    1114.9213   -6073.6978   -4958.7765   0.97513831 
   15600    22.349196    5715.1323    1120.1936   -6072.6882   -4952.4947   0.97513831 
   15700    22.519906    5750.4553      1128.75   -6078.4477   -4949.6977   0.97513831 
   15800    22.333758    5718.7406    1119.4198   -6071.0146   -4951.5948   0.97513831 
   15900    22.444719    5713.9308    1124.9814   -6079.1912   -4954.2098   0.97513831 
   16000    22.820679    5723.0881    1143.8254   -6089.3997   -4945.5743   0.97513831 
   16100    22.606196    5663.3468     1133.075   -6090.3667   -4957.2917   0.97513831 
   16200    22.645947    5646.0305    1135.0674   -6089.3463   -4954.2789   0.97513831 
   16300    22.830952    5712.6087    1144.3403   -6099.4228   -4955.0825   0.97513831 
   16400    22.688195    5749.9719     1137.185   -6097.4519   -4960.2669   0.97513831 
   16500    22.817252    5706.9172    1143.6536   -6106.1042   -4962.4506   0.97513831 
   16600    22.852431    5725.3842    1145.4169   -6112.0901   -4966.6733   0.97513831 
   16700    23.219027    5666.5219    1163.7915   -6113.4891   -4949.6976   0.97513831 
   16800    23.141462    5697.0625    1159.9038   -6115.4853   -4955.5815   0.97513831 
   16900    23.219561    5659.1119    1163.8183   -6113.2558   -4949.4375   0.97513831 
   17000    23.428106    5630.3278    1174.2711   -6111.8333   -4937.5623   0.97513831 
   17100    23.241125    5564.7435    1164.8991   -6109.0512   -4944.1521   0.97513831 
   17200    23.275506     5628.207    1166.6224   -6124.9202   -4958.2978   0.97513831 
   17300    23.406281     5615.159    1173.1771   -6125.4682   -4952.2911   0.97513831 
   17400    23.470507    5669.9957    1176.3963   -6126.5284   -4950.1321   0.97513831 
   17500    23.514952     5661.632     1178.624   -6115.4377   -4936.8137   0.97513831 
   17600    23.762492    5616.1306    1191.0312   -6125.1384   -4934.1072   0.97513831 
   17700    23.842032     5617.185     1195.018   -6142.4342   -4947.4162   0.97513831 
   17800    23.627146    5578.6686    1184.2474   -6125.3184    -4941.071   0.97513831 
   17900    24.237529    5622.9891    1214.8412   -6147.3086   -4932.4674   0.97513831 
   18000    23.895116    5624.0705    1197.6787   -6135.0684   -4937.3898   0.97513831 
   18100    24.256309     5570.713    1215.7825   -6143.6986   -4927.9161   0.97513831 
   18200    23.893892    5518.7799    1197.6173   -6127.3534   -4929.7361   0.97513831 
   18300    24.326934     5545.504    1219.3224   -6143.7167   -4924.3943   0.97513831 
   18400    24.020235    5635.0869    1203.9499   -6149.8741   -4945.9242   0.97513831 
   18500    24.104661    5545.6054    1208.1816   -6140.0414   -4931.8598   0.97513831 
   18600    24.198001    5532.1899      1212.86    -6141.539   -4928.6791   0.97513831 
   18700     24.59069    5602.5128    1232.5425   -6145.9687   -4913.4262   0.97513831 
   18800    24.436586    5558.0898    1224.8184   -6146.8285   -4922.0101   0.97513831 
   18900      24.6663    5613.2551    1236.3322   -6176.6289   -4940.2966   0.97513831 
   19000    24.709964    5596.3923    1238.5208   -6180.3436   -4941.8228   0.97513831 
   19100    24.642289    5568.3607    1235.1287   -6190.3708   -4955.2421   0.97513831 
   19200     24.83017    5574.3357    1244.5457     -6182.44   -4937.8942   0.97513831 
   19300    24.737089    5484.0249    1239.8803   -6180.1183    -4940.238   0.97513831 
   19400    25.093719    5488.0045    1257.7555   -6191.3293   -4933.5738   0.97513831 
   19500    24.918595    5492.7568    1248.9778   -6163.3766   -4914.3988   0.97513831 
   19600    25.065898    5508.6616     1256.361   -6178.0061   -4921.6452   0.97513831 
   19700    25.203113    5486.8507    1263.2385   -6193.1171   -4929.8785   0.97513831 
   19800    24.942728    5551.0773    1250.1874   -6200.0392   -4949.8518   0.97513831 
   19900    24.864341    5544.5929    1246.2585   -6195.8892   -4949.6307   0.97513831 
   20000     25.08435    5552.0957    1257.2858   -6188.7946   -4931.5088   0.97513831 
   20100    25.622575    5471.2954    1284.2629   -6192.8362   -4908.5733   0.97513831 
   20200    25.294012    5468.0981    1267.7946   -6192.5271   -4924.7325   0.97513831 
   20300    25.439917    5567.3882    1275.1077   -6196.3501   -4921.2424   0.97513831 
   20400    25.641824    5475.0823    1285.2277   -6203.3179   -4918.0902   0.97513831 
   20500    25.662579    5409.1207     1286.268   -6200.5786   -4914.3106   0.97513831 
   20600    25.606669    5543.7865    1283.4657   -6194.6264   -4911.1607   0.97513831 
   20700    25.497168    5484.5901    1277.9772   -6194.9043   -4916.9271   0.97513831 
   20800    25.841576    5460.4661    1295.2398   -6219.5829   -4924.3431   0.97513831 
   20900    26.045186    5535.0045    1305.4452   -6211.2683   -4905.8232   0.97513831 
   21000     25.77005     5501.204    1291.6547   -6204.5971   -4912.9424   0.97513831 
   21100    25.849583    5475.4432    1295.6411   -6192.9618   -4897.3207   0.97513831 
   21200    25.763278    5454.5724    1291.3153   -6204.7403    -4913.425   0.97513831 
   21300    26.118446    5405.4139    1309.1172   -6214.3531    -4905.236   0.97513831 
   21400    26.100749    5447.5506    1308.2301   -6210.8892   -4902.6591   0.97513831 
   21500    26.213031    5452.5411    1313.8579   -6224.6015   -4910.7436   0.97513831 
   21600    26.414813    5442.8088    1323.9717   -6197.3235   -4873.3517   0.97513831 
   21700    26.319069    5399.2947    1319.1728   -6212.9507   -4893.7779   0.97513831 
   21800    26.353776    5371.4878    1320.9124   -6217.0896   -4896.1772   0.97513831 
   21900    26.171776    5447.7478    1311.7902   -6222.0591    -4910.269   0.97513831 
   22000    26.299785    5438.4422    1318.2063   -6205.3824   -4887.1761   0.97513831 
   22100    26.354602    5429.8138    1320.9538   -6223.4966   -4902.5428   0.97513831 
   22200    26.521123    5407.2658    1329.3003   -6202.2926   -4872.9924   0.97513831 
   22300    26.970104    5440.7984    1351.8042   -6215.1383   -4863.3341   0.97513831 
   22400    26.922844    5444.6997    1349.4354   -6224.1774    -4874.742   0.97513831 
   22500    26.851856    5453.9657    1345.8774   -6224.8482   -4878.9708   0.97513831 
   22600    27.070042    5423.9576    1356.8133   -6234.0241   -4877.2108   0.97513831 
   22700    26.953544    5368.5606    1350.9742   -6239.4618   -4888.4877   0.97513831 
   22800    26.758824    5433.3862    1341.2144    -6240.183   -4898.9686   0.97513831 
   22900    26.874815    5417.9873    1347.0281   -6238.4083   -4891.3802   0.97513831 
   23000    26.722283    5397.6454    1339.3828   -6239.7592   -4900.3764   0.97513831 
   23100    27.179009    5345.4104     1362.275   -6252.5892   -4890.3142   0.97513831 
   23200    27.143856      5381.46     1360.513   -6234.2479   -4873.7348   0.97513831 
   23300    27.345917    5322.0779    1370.6408   -6266.2832   -4895.6424   0.97513831 
   23400    27.350936    5326.7971    1370.8924   -6237.0531   -4866.1607   0.97513831 
   23500    27.050192    5348.2481    1355.8184   -6259.1633   -4903.3449   0.97513831 
   23600     27.59677    5374.6869    1383.2141   -6250.4839   -4867.2697   0.97513831 
   23700    27.477349    5383.4512    1377.2285   -6254.9094   -4877.6809   0.97513831 
   23800    27.570978    5401.5933    1381.9214   -6276.3726   -4894.4512   0.97513831 
   23900    27.894099    5296.0862     1398.117   -6263.8515   -4865.7345   0.97513831 
   24000    27.510243    5361.4218    1378.8772   -6262.8597   -4883.9824   0.97513831 
   24100    27.367463    5354.1611    1371.7208   -6266.1321   -4894.4113   0.97513831 
   24200     27.74602    5412.2565    1390.6949   -6285.9987   -4895.3038   0.97513831 
   24300    28.049498    5371.4675    1405.9059   -6279.0308   -4873.1248   0.97513831 
   24400    27.946805    5380.6035    1400.7587   -6266.3648   -4865.6061   0.97513831 
   24500    27.875129    5335.0712    1397.1662   -6264.4438   -4867.2777   0.97513831 
   24600    28.014725    5329.5048     1404.163   -6283.6541   -4879.4911   0.97513831 
   24700    27.874449    5341.8629    1397.1321   -6280.6933   -4883.5612   0.97513831 
   24800    28.248541    5358.1631    1415.8824    -6278.951   -4863.0686   0.97513831 
   24900    28.498956    5332.0618    1428.4338   -6269.2468    -4840.813   0.97513831 
   25000    27.930538    5210.9951    1399.9434   -6279.2658   -4879.3224   0.97513831 
   25100    28.409182    5283.6604    1423.9341   -6277.9733   -4854.0392   0.97513831 
   25200    28.382343    5298.7174    1422.5889   -6278.4419    -4855.853   0.97513831 
   25300    28.412641    5312.8513    1424.1075   -6274.9706   -4850.8631   0.97513831 
   25400    28.237197     5269.365    1415.3139   -6282.4452   -4867.1313   0.97513831 
   25500    28.623122    5221.9664    1434.6573   -6293.0975   -4858.4402   0.97513831 
   25600    28.530788    5285.0597    1430.0293   -6280.9546   -4850.9253   0.97513831 
   25700    28.593034    5248.6797    1433.1492   -6281.2432    -4848.094   0.97513831 
   25800    28.539214    5213.5094    1430.4517   -6285.3549   -4854.9033   0.97513831 
   25900    28.352018    5259.1904    1421.0689   -6299.1576   -4878.0887   0.97513831 
   26000    28.674394    5200.0987    1437.2272    -6301.006   -4863.7788   0.97513831 
   26100     28.65227    5207.0121    1436.1183   -6302.9829   -4866.8646   0.97513831 
   26200    28.877511    5239.3084    1447.4079   -6297.7262   -4850.3183   0.97513831 
   26300    28.686506    5280.0857    1437.8343   -6272.1213    -4834.287   0.97513831 
   26400     29.03319     5287.442    1455.2109   -6300.5932   -4845.3823   0.97513831 
   26500    28.922905    5283.1929    1449.6831   -6304.2402   -4854.5571   0.97513831 
   26600    28.877231    5250.5131    1447.3938   -6298.7942   -4851.4003   0.97513831 
   26700     29.23443    5240.9342    1465.2975    -6320.919   -4855.6215   0.97513831 
   26800    29.228865    5269.6704    1465.0186   -6311.7893   -4846.7708   0.97513831 
   26900    29.091311    5174.8476     1458.124   -6272.3797   -4814.2556   0.97513831 
   27000    29.423053    5218.6533    1474.7517   -6312.9394   -4838.1877   0.97513831 
   27100    29.342792    5255.6333    1470.7288   -6289.5702   -4818.8413   0.97513831 
   27200    29.644505    5187.5341    1485.8514     -6316.61   -4830.7586   0.97513831 
   27300    29.192442    5226.0893    1463.1929   -6301.8851   -4838.6921   0.97513831 
   27400    29.546419    5232.3007    1480.9351   -6298.8017   -4817.8666   0.97513831 
   27500    29.503584    5172.0444    1478.7881   -6319.0504   -4840.2623   0.97513831 
   27600    30.003233    5189.5319    1503.8317    -6324.808   -4820.9764   0.97513831 
   27700    29.730475    5280.9253    1490.1604   -6323.6501   -4833.4897   0.97513831 
   27800    29.547666    5190.4632    1480.9976   -6330.9953   -4849.9977   0.97513831 
   27900    29.722643    5191.9586    1489.7679   -6304.7813   -4815.0135   0.97513831 
   28000    29.779192    5145.3653    1492.6022   -6320.8634   -4828.2612   0.97513831 
   28100    29.833325    5151.6444    1495.3155   -6315.9062   -4820.5907   0.97513831 
   28200     30.00461    5162.3702    1503.9007   -6317.8211   -4813.9204   0.97513831 
   28300    30.023356    5108.2691    1504.8403   -6341.0102   -4836.1699   0.97513831 
   28400    30.015119    5236.8691    1504.4274   -6339.0773   -4834.6499   0.97513831 
   28500    30.204783    5128.4812    1513.9338   -6338.8573   -4824.9234   0.97513831 
   28600     30.24946    5159.4292    1516.1731   -6324.3884   -4808.2153   0.97513831 
   28700    30.092405    5151.1044    1508.3012   -6301.4976   -4793.1965   0.97513831 
   28800    30.360279    5159.7822    1521.7277   -6339.5352   -4817.8075   0.97513831 
   28900    30.135355    5105.6246    1510.4539   -6325.8184   -4815.3644   0.97513831 
   29000    30.496519    5122.2578    1528.5563   -6315.6357   -4787.0794   0.97513831 
   29100    30.560405    5154.7074    1531.7585   -6332.8251   -4801.0667   0.97513831 
   29200    30.424414     5116.113    1524.9422    -6353.038   -4828.0958   0.97513831 
   29300    30.282389    5063.4799    1517.8236   -6324.5266    -4806.703   0.97513831 
   29400    30.689563    5114.0525    1538.2321   -6343.6269   -4805.3948   0.97513831 
   29500    30.437439    5141.4581    1525.5951   -6347.3727   -4821.7776   0.97513831 
   29600    30.711141    5113.1683    1539.3137   -6323.0614   -4783.7477   0.97513831 
   29700    30.562823    5110.1581    1531.8796   -6333.1603   -4801.2806   0.97513831 
   29800    30.876676    5094.5849    1547.6107   -6335.9495   -4788.3388   0.97513831 
   29900      30.8524    4979.8933    1546.3939   -6342.9784   -4796.5845   0.97513831 
   30000    30.975239    5115.3832    1552.5509   -6338.7008     -4786.15   0.97513831 
   30100    31.127676    5082.7466    1560.1914   -6353.2029   -4793.0116   0.97513831 
   30200     30.94047    5060.4615    1550.8082   -6336.3061   -4785.4979   0.97513831 
   30300    30.504588    5063.7386    1528.9608   -6355.0651   -4826.1043   0.97513831 
   30400    30.846581    5116.9078    1546.1022   -6346.8768   -4800.7746   0.97513831 
   30500    31.480376    5179.3339    1577.8695   -6319.2735    -4741.404   0.97513831 
   30600    31.397881    5048.7526    1573.7347   -6332.5261   -4758.7914   0.97513831 
   30700    31.120665    5103.1845      1559.84   -6351.3502   -4791.5102   0.97513831 
   30800     31.25858    5086.7457    1566.7526   -6361.5325   -4794.7799   0.97513831 
   30900    30.754502    5008.8081     1541.487   -6389.8124   -4848.3254   0.97513831 
   31000    31.042427    5031.3316    1555.9185   -6350.4063   -4794.4878   0.97513831 
   31100      31.4513    5002.0235    1576.4122   -6359.7179   -4783.3057   0.97513831 
   31200    31.536838    5092.7599    1580.6995   -6378.8692   -4798.1697   0.97513831 
   31300      31.0433     4984.478    1555.9622   -6371.5477   -4815.5855   0.97513831 
   31400    31.608048    4982.1811    1584.2687   -6359.0317    -4774.763   0.97513831 
   31500    31.748279    5049.7173    1591.2975   -6369.1605   -4777.8631   0.97513831 
   31600    31.916738    5007.6949     1599.741   -6363.4299   -4763.6889   0.97513831 
   31700    31.607844    4978.2686    1584.2585   -6358.4445    -4774.186   0.97513831 
   31800    31.814182    4965.9792    1594.6006   -6372.0718   -4777.4711   0.97513831 
   31900    31.766664    5013.3153     1592.219   -6375.8483   -4783.6293   0.97513831 
   32000    31.761691    4977.2739    1591.9697   -6375.7394   -4783.7697   0.97513831 
   32100    32.073426    4979.3038    1607.5946   -6390.2754   -4782.6808   0.97513831 
   32200    32.210768    5015.3143    1614.4785   -6347.6878   -4733.2093   0.97513831 
   32300    32.066257    5052.8832    1607.2352   -6380.4076   -4773.1724   0.97513831 
   32400    32.023429    4940.5875    1605.0886    -6375.169   -4770.0804   0.97513831 
   32500    32.156756    4916.7919    1611.7712    -6383.579   -4771.8078   0.97513831 
   32600    31.824844    4959.5712     1595.135   -6392.8851     -4797.75   0.97513831 
   32700    32.228743    5026.0005    1615.3794   -6371.9121   -4756.5327   0.97513831 
   32800    32.145491    5004.6151    1611.2066   -6356.0252   -4744.8186   0.97513831 
   32900    32.431747    4869.3332    1625.5544   -6371.5276   -4745.9732   0.97513831 
   33000    32.539897    4931.3258    1630.9752   -6382.0573   -4751.0821   0.97513831 
   33100    32.374403    4931.3811    1622.6802   -6415.6956   -4793.0154   0.97513831 
   33200    32.491683     4923.187    1628.5586   -6395.7646    -4767.206   0.97513831 
   33300    32.644729    4908.6886    1636.2296   -6418.5482   -4782.3186   0.97513831 
   33400    32.471527    4928.7578    1627.5483   -6394.8973    -4767.349   0.97513831 
   33500    32.492392    4950.2172    1628.5941   -6409.8377   -4781.2436   0.97513831 
   33600    32.651632    4937.9865    1636.5756   -6409.6216    -4773.046   0.97513831 
   33700     32.45716    4868.1517    1626.8282   -6393.5531   -4766.7249   0.97513831 
   33800    32.979826    4906.5654    1653.0254    -6409.899   -4756.8736   0.97513831 
   33900    32.456943    4872.0992    1626.8173   -6420.2344   -4793.4171   0.97513831 
   34000    32.808977    4905.7842    1644.4621   -6427.2164   -4782.7543   0.97513831 
   34100     32.90523    4875.5901    1649.2865   -6408.0127   -4758.7262   0.97513831 
   34200    33.049948    4886.0596    1656.5401   -6403.3913   -4746.8511   0.97513831 
   34300    32.642229    4869.8515    1636.1043   -6391.0667   -4754.9624   0.97513831 
   34400    32.934567    4867.7157    1650.7569   -6438.3602   -4787.6032   0.97513831 
   34500    33.205155     4849.111    1664.3195   -6413.5565    -4749.237   0.97513831 
   34600    33.408066    4872.8876    1674.4898   -6454.7323   -4780.2425   0.97513831 
   34700    32.714836     4807.736    1639.7435   -6426.1954   -4786.4519   0.97513831 
   34800    33.221425    4918.0484    1665.1349   -6407.1218   -4741.9869   0.97513831 
   34900    33.351225    4852.2926    1671.6408   -6423.3968    -4751.756   0.97513831 
   35000    32.781478    4807.0197    1643.0838   -6411.1408    -4768.057   0.97513831 
   35100      33.3634    4879.4837    1672.2511    -6408.567   -4736.3159   0.97513831 
   35200    33.227336    4857.1384    1665.4312   -6396.3476   -4730.9164   0.97513831 
   35300    33.544511    4916.6363    1681.3287   -6412.3741   -4731.0453   0.97513831 
   35400    33.464471    4849.3733     1677.317   -6433.1453   -4755.8283   0.97513831 
   35500    33.259965    4817.6585    1667.0666   -6418.7497   -4751.6831   0.97513831 
   35600    33.839763    4837.2364    1696.1275   -6434.0024   -4737.8749   0.97513831 
   35700    33.691368    4875.6487    1688.6896   -6428.6563   -4739.9667   0.97513831 
   35800     33.97704    4833.0806    1703.0081    -6433.642   -4730.6339   0.97513831 
   35900     33.87421    4841.6554     1697.854   -6443.1401   -4745.2861   0.97513831 
   36000    33.858526    4812.6514    1697.0679   -6416.4049    -4719.337   0.97513831 
   36100     34.27104    4812.5375    1717.7441   -6454.0464   -4736.3023   0.97513831 
   36200    34.010869    4815.2389    1704.7037   -6439.7999   -4735.0962   0.97513831 
   36300    34.240034    4789.0395      1716.19   -6437.6349   -4721.4449   0.97513831 
   36400    33.983761    4756.3223     1703.345   -6427.8424   -4724.4974   0.97513831 
   36500    34.165543    4769.3851    1712.4563   -6438.1713    -4725.715   0.97513831 
   36600    33.840783    4798.6115    1696.1786   -6439.1836    -4743.005   0.97513831 
   36700    34.475135    4800.2317    1727.9738   -6453.3244   -4725.3506   0.97513831 
   36800    34.385342    4800.0068    1723.4732   -6427.9462    -4704.473   0.97513831 
   36900    34.350002    4843.7406    1721.7018   -6437.0386   -4715.3367   0.97513831 
   37000    34.149357    4804.0754     1711.645   -6440.3018   -4728.6568   0.97513831 
   37100    34.238042    4857.5713    1716.0902    -6454.601   -4738.5108   0.97513831 
   37200    35.022109    4851.2911    1755.3894   -6427.1518   -4671.7625   0.97513831 
   37300    34.717871    4769.5393    1740.1403   -6444.7001   -4704.5598   0.97513831 
   37400    34.730469    4747.3392    1740.7717   -6435.5729   -4694.8011   0.97513831 
   37500    34.700376    4784.7282    1739.2634   -6450.2426   -4710.9792   0.97513831 
   37600    34.643775    4864.7651    1736.4264   -6452.1694    -4715.743   0.97513831 
   37700    34.304452    4756.0305    1719.4187   -6472.1833   -4752.7646   0.97513831 
   37800    34.832761    4743.5719    1745.8988   -6466.0361   -4720.1373   0.97513831 
   37900    34.585737    4713.7479    1733.5174   -6478.5292   -4745.0118   0.97513831 
   38000    34.876394     4721.604    1748.0858   -6455.9801   -4707.8943   0.97513831 
   38100    35.058116    4743.7847    1757.1942   -6455.4826   -4698.2884   0.97513831 
   38200     35.21491    4768.4136     1765.053   -6481.1273   -4716.0743   0.97513831 
   38300    34.950852    4744.5959    1751.8178   -6469.1896   -4717.3718   0.97513831 
   38400      34.6552    4761.9762     1736.999    -6472.347   -4735.3479   0.97513831 
   38500    34.988867    4807.0076    1753.7232    -6472.911   -4719.1878   0.97513831 
   38600    35.174411    4698.3814    1763.0231   -6446.2851    -4683.262   0.97513831 
   38700    34.707714    4713.4371    1739.6312   -6487.7863   -4748.1551   0.97513831 
   38800    35.064622    4739.4306    1757.5203   -6472.9139   -4715.3937   0.97513831 
   38900    35.450273    4732.7207      1776.85   -6463.7649   -4686.9149   0.97513831 
   39000    35.023739    4692.4521    1755.4711   -6472.9952   -4717.5241   0.97513831 
   39100    35.435884    4720.2891    1776.1287   -6476.8573   -4700.7286   0.97513831 
   39200    35.039212    4772.6348    1756.2466   -6466.3256    -4710.079   0.97513831 
   39300     35.16952     4701.242    1762.7779   -6457.2552   -4694.4772   0.97513831 
   39400    35.872358      4609.62    1798.0058   -6477.4452   -4679.4394   0.97513831 
   39500    35.507893    4664.6221     1779.738   -6489.9097   -4710.1717   0.97513831 
   39600    35.212378    4698.1939    1764.9261   -6472.1275   -4707.2014   0.97513831 
   39700    35.152313    4726.3914    1761.9155   -6457.5616   -4695.6461   0.97513831 
   39800    35.337271    4689.0718     1771.186   -6483.3875   -4712.2014   0.97513831 
   39900      35.4783    4693.4137    1778.2547     -6477.35   -4699.0953   0.97513831 
   40000     35.54544    4779.1403      1781.62   -6489.0013   -4707.3813   0.97513831 
   40100    35.692707    4780.6106    1789.0013   -6465.3724   -4676.3711   0.97513831 
   40200    35.554274    4717.0518    1782.0627   -6475.2717   -4693.2089   0.97513831 
   40300    36.125527    4720.4692    1810.6952   -6473.8614   -4663.1662   0.97513831 
   40400    36.179561    4708.4519    1813.4036   -6475.6223   -4662.2188   0.97513831 
   40500    36.269489    4655.9605     1817.911   -6477.3459   -4659.4349   0.97513831 
   40600    35.989056    4723.6871     1803.855   -6490.0087   -4686.1537   0.97513831 
   40700    36.112054    4639.3998      1810.02   -6490.5435   -4680.5236   0.97513831 
   40800    36.460335    4718.3002    1827.4766   -6488.6246    -4661.148   0.97513831 
   40900     35.99079    4663.8611    1803.9419   -6470.2634   -4666.3215   0.97513831 
   41000    36.067932    4616.8712    1807.8085   -6490.6841   -4682.8757   0.97513831 
   41100    36.399787    4657.4389    1824.4418   -6475.3056   -4650.8638   0.97513831 
   41200    36.244417    4517.0239    1816.6543   -6489.7141   -4673.0598   0.97513831 
   41300    36.172188    4530.7574     1813.034   -6490.4204   -4677.3864   0.97513831 
   41400    36.210215     4634.257      1814.94    -6489.752    -4674.812   0.97513831 
   41500    36.563126    4616.5497    1832.6287   -6474.9129   -4642.2842   0.97513831 
   41600    36.460598     4613.919    1827.4898   -6488.5975   -4661.1077   0.97513831 
   41700    36.511142    4601.3334    1830.0232   -6496.3794   -4666.3562   0.97513831 
   41800    36.417101    4660.6138    1825.3096   -6485.7798   -4660.4702   0.97513831 
   41900    37.050269    4615.1069    1857.0455   -6500.7389   -4643.6934   0.97513831 
   42000    36.550483    4580.7768    1831.9951   -6520.0917   -4688.0966   0.97513831 
   42100    37.101717    4683.9437    1859.6242   -6481.7544   -4622.1302   0.97513831 
   42200    36.626477    4717.2181    1835.8041   -6511.4536   -4675.6495   0.97513831 
   42300    36.659515     4695.294      1837.46    -6499.018    -4661.558   0.97513831 
   42400    36.395865    4646.5625    1824.2452   -6482.5633   -4658.3181   0.97513831 
   42500    37.176991    4603.0269    1863.3971   -6530.6363   -4667.2392   0.97513831 
   42600     37.09805    4565.9353    1859.4404   -6489.0162   -4629.5758   0.97513831 
   42700    36.937912    4706.8603    1851.4139   -6500.8091   -4649.3952   0.97513831 
   42800    36.662247    4521.2389    1837.5969   -6486.6592   -4649.0623   0.97513831 
   42900    36.886354    4466.1351    1848.8297   -6522.4378   -4673.6081   0.97513831 
   43000    36.629263    4583.1274    1835.9437   -6511.2035   -4675.2598   0.97513831 
   43100    37.085031    4601.5802    1858.7878   -6516.7312   -4657.9434   0.97513831 
   43200    37.363727    4616.2944    1872.7567   -6490.4349   -4617.6782   0.97513831 
   43300    37.024548    4495.2046    1855.7563   -6543.3373    -4687.581   0.97513831 
   43400    37.421211    4605.5201    1875.6379   -6528.8615   -4653.2236   0.97513831 
   43500    37.149619    4628.6547    1862.0251   -6503.3619   -4641.3367   0.97513831 
   43600    36.724019    4568.0815    1840.6931   -6506.7875   -4666.0945   0.97513831 
   43700    37.442647    4582.8818    1876.7124   -6497.8585   -4621.1462   0.97513831 
   43800    37.426682    4482.1002    1875.9122   -6550.8153   -4674.9031   0.97513831 
   43900    37.321943    4591.2847    1870.6624   -6512.8367   -4642.1743   0.97513831 
   44000    37.469775    4620.3397    1878.0721   -6522.9682   -4644.8961   0.97513831 
   44100    37.295292    4575.5423    1869.3266   -6501.4248   -4632.0981   0.97513831 
   44200    37.149711    4466.8845    1862.0298   -6535.6647   -4673.6349   0.97513831 
   44300    37.406462    4550.8755    1874.8987   -6524.2082   -4649.3095   0.97513831 
   44400    37.142399    4486.6998    1861.6632   -6527.4281   -4665.7649   0.97513831 
   44500    37.601982    4525.4734    1884.6986   -6529.8164   -4645.1178   0.97513831 
   44600    37.804424    4514.0182    1894.8455   -6532.3386   -4637.4931   0.97513831 
   44700    38.021897    4490.6202    1905.7457   -6526.9076   -4621.1619   0.97513831 
   44800    37.722529    4523.4028    1890.7407    -6520.592   -4629.8512   0.97513831 
   44900    37.981844    4453.1942    1903.7382   -6558.1531   -4654.4149   0.97513831 
   45000    37.721152    4509.1167    1890.6717   -6515.7216     -4625.05   0.97513831 
   45100    37.503579    4611.9055    1879.7664   -6534.6479   -4654.8815   0.97513831 
   45200    37.654098    4408.6804    1887.3108   -6531.6911   -4644.3803   0.97513831 
   45300     37.87649    4497.3399    1898.4576   -6540.2638   -4641.8062   0.97513831 
   45400    37.876277    4550.7139    1898.4469   -6534.6921   -4636.2452   0.97513831 
   45500     38.13553    4512.9854    1911.4413   -6534.6374   -4623.1961   0.97513831 
   45600    38.483052    4490.3507    1928.8599   -6522.6765   -4593.8166   0.97513831 
   45700    38.353917    4505.4496    1922.3873    -6530.254   -4607.8667   0.97513831 
   45800    38.521072    4554.2523    1930.7656   -6523.8251   -4593.0595   0.97513831 
   45900     38.59843    4453.6573    1934.6429   -6542.3246   -4607.6817   0.97513831 
   46000    38.623608    4505.9177    1935.9049   -6542.4306   -4606.5257   0.97513831 
   46100    38.499061    4508.8459    1929.6623   -6541.1524   -4611.4901   0.97513831 
   46200     38.72571    4487.1738    1941.0225   -6515.2541   -4574.2316   0.97513831 
   46300      38.8725    4345.8484    1948.3799   -6549.7466   -4601.3667   0.97513831 
   46400     37.99252    4417.6811    1904.2733   -6544.2764   -4640.0031   0.97513831 
   46500    38.507876       4493.8    1930.1041   -6572.2868   -4642.1826   0.97513831 
   46600    38.704411    4474.2514    1939.9549    -6571.896   -4631.9411   0.97513831 
   46700    38.794947    4410.2162    1944.4928   -6565.0504   -4620.5576   0.97513831 
   46800    38.194148    4438.6381    1914.3793   -6563.8811   -4649.5018   0.97513831 
   46900    38.103227     4358.808    1909.8222   -6572.9829   -4663.1608   0.97513831 
   47000    38.681952    4480.1197    1938.8292   -6567.1704   -4628.3412   0.97513831 
   47100    38.625305    4448.0353    1935.9899   -6541.8546   -4605.8647   0.97513831 
   47200    38.847714    4424.4438    1947.1376   -6556.4249   -4609.2873   0.97513831 
   47300    38.967078    4439.3077    1953.1204   -6556.1241   -4603.0037   0.97513831 
   47400    38.704847    4511.1625    1939.9767   -6548.1846   -4608.2079   0.97513831 
   47500    39.468019    4499.8914    1978.2287   -6560.4048   -4582.1761   0.97513831 
   47600    39.036837    4393.3831    1956.6169   -6574.2647   -4617.6478   0.97513831 
   47700    39.308866    4369.4064    1970.2516   -6554.4228   -4584.1712   0.97513831 
   47800    39.657484    4450.1816    1987.7252   -6572.7592    -4585.034   0.97513831 
   47900    38.837795    4413.4835    1946.6404   -6575.3457   -4628.7053   0.97513831 
   48000    39.370966    4447.7899    1973.3642   -6595.2032    -4621.839   0.97513831 
   48100    39.073345    4474.1278    1958.4468   -6558.0089   -4599.5621   0.97513831 
   48200    39.512629    4391.0441    1980.4647   -6583.6885   -4603.2238   0.97513831 
   48300    39.203193    4441.3783     1964.955   -6598.0244   -4633.0694   0.97513831 
   48400    39.100986    4307.6411    1959.8322   -6576.2397   -4616.4075   0.97513831 
   48500    39.499858    4351.8813    1979.8246   -6602.9991   -4623.1746   0.97513831 
   48600    39.366796    4390.9206    1973.1552   -6589.4304   -4616.2752   0.97513831 
   48700    39.444838    4349.9427    1977.0668   -6591.9458   -4614.8789   0.97513831 
   48800    39.188257    4286.9077    1964.2064   -6574.3617   -4610.1553   0.97513831 
   48900    39.871065    4347.5809    1998.4303    -6572.076   -4573.6456   0.97513831 
   49000    39.624218    4360.8368    1986.0578   -6604.5653   -4618.5075   0.97513831 
   49100    39.404091    4391.8808    1975.0245   -6587.8314    -4612.807   0.97513831 
   49200    39.597315    4308.8846    1984.7093   -6581.6334   -4596.9241   0.97513831 
   49300    40.056442    4338.7067    2007.7218   -6613.0178    -4605.296   0.97513831 
   49400    39.743205    4260.8624    1992.0217   -6604.5005   -4612.4788   0.97513831 
   49500    40.228334    4301.0917    2016.3375   -6591.7991   -4575.4616   0.97513831 
   49600    40.258377    4297.9044    2017.8433   -6562.4386   -4544.5953   0.97513831 
   49700    39.864974    4258.0455     1998.125    -6605.099   -4606.9739   0.97513831 
   49800    39.959422     4318.542     2002.859   -6608.2733   -4605.4143   0.97513831 
   49900    39.893172    4328.3622    1999.5384   -6631.5777   -4632.0393   0.97513831 
   50000    40.445547    4292.3777    2027.2247    -6622.486   -4595.2613   0.97513831 
   50100    40.046665     4422.384    2007.2318   -6621.4794   -4614.2476   0.97513831 
   50200    39.649471    4393.3475    1987.3235    -6642.203   -4654.8795   0.97513831 
   50300    40.334166    4312.3835     2021.642   -6590.8464   -4569.2044   0.97513831 
   50400     40.80327    4271.2204    2045.1546   -6594.0471   -4548.8925   0.97513831 
   50500    40.390579    4334.1708    2024.4696   -6603.8192   -4579.3497   0.97513831 
   50600    40.006804    4355.3078    2005.2339   -6611.4217   -4606.1878   0.97513831 
   50700    40.172605    4259.7945    2013.5442   -6596.0468   -4582.5026   0.97513831 
   50800    40.430687    4307.9414    2026.4799   -6609.8893   -4583.4094   0.97513831 
   50900    40.714881      4264.74    2040.7243     -6602.17   -4561.4456   0.97513831 
   51000    40.454198    4324.9248    2027.6583   -6612.6864   -4585.0281   0.97513831 
   51100    40.788511    4358.4016    2044.4148   -6628.1094   -4583.6946   0.97513831 
   51200    40.291144    4268.5985    2019.4857   -6611.4833   -4591.9977   0.97513831 
   51300    40.284529    4343.9146    2019.1541   -6623.5195   -4604.3654   0.97513831 
   51400     40.44958     4298.284    2027.4268   -6616.7287   -4589.3019   0.97513831 
   51500    41.080148     4199.229    2059.0324   -6612.9132   -4553.8808   0.97513831 
   51600     41.00896    4351.3078    2055.4642   -6604.2384   -4548.7741   0.97513831 
   51700    41.135071    4276.7967    2061.7852   -6621.4687   -4559.6834   0.97513831 
   51800    40.387769    4343.7226    2024.3287   -6623.9609   -4599.6322   0.97513831 
   51900     41.09956      4315.03    2060.0054   -6612.6398   -4552.6345   0.97513831 
   52000    40.442577    4218.0197    2027.0758   -6616.8905   -4589.8147   0.97513831 
   52100    40.938506    4274.2929    2051.9329   -6602.6495   -4550.7166   0.97513831 
   52200    40.923506    4190.8966    2051.1811   -6613.8385   -4562.6574   0.97513831 
   52300    41.269359    4136.9243    2068.5161   -6607.6862   -4539.1701   0.97513831 
   52400    41.208349    4220.5801    2065.4581   -6612.9764   -4547.5182   0.97513831 
   52500    40.987149    4263.2014    2054.3711   -6602.3159   -4547.9449   0.97513831 
   52600    41.158894    4258.0144    2062.9793   -6612.3756   -4549.3963   0.97513831 
   52700    41.417112    4339.0389    2075.9218   -6601.0411   -4525.1193   0.97513831 
   52800    41.185131    4260.1541    2064.2943   -6602.3047   -4538.0104   0.97513831 
   52900    41.599003    4222.5965    2085.0386   -6592.8513   -4507.8127   0.97513831 
   53000    41.735876    4246.7305     2091.899   -6591.6455   -4499.7465   0.97513831 
   53100    41.535641    4256.8432    2081.8627   -6619.4552   -4537.5925   0.97513831 
   53200    41.243105    4264.0004    2067.2001   -6631.0219   -4563.8218   0.97513831 
   53300    41.657766    4242.7472    2087.9839    -6621.937    -4533.953   0.97513831 
   53400    41.584092    4178.8014    2084.2912   -6609.8139   -4525.5227   0.97513831 
   53500    41.610239    4230.0271    2085.6017   -6636.7815   -4551.1797   0.97513831 
   53600    41.415308    4158.1722    2075.8314   -6645.4445   -4569.6131   0.97513831 
   53700    42.290985    4208.1594    2119.7223   -6631.5669   -4511.8446   0.97513831 
   53800    41.404538    4281.9045    2075.2916   -6616.3851   -4541.0935   0.97513831 
   53900    41.863033    4210.6902    2098.2724   -6623.4129   -4525.1405   0.97513831 
   54000    41.713913    4176.2913    2090.7981   -6630.2404   -4539.4422   0.97513831 
   54100    41.476133    4250.6283      2078.88     -6620.08      -4541.2   0.97513831 
   54200    41.590172     4249.132     2084.596    -6630.743   -4546.1471   0.97513831 
   54300     41.60059    4151.1182    2085.1181   -6620.5699   -4535.4518   0.97513831 
   54400    41.946149    4223.6329    2102.4383   -6602.0167   -4499.5784   0.97513831 
   54500    41.898913     4171.713    2100.0708   -6645.6892   -4545.6184   0.97513831 
   54600    41.920388    4238.3188    2101.1472   -6597.5771   -4496.4299   0.97513831 
   54700    41.995979    4183.0493    2104.9359   -6628.2119    -4523.276   0.97513831 
   54800    42.072484    4213.1006    2108.7705   -6625.9871   -4517.2166   0.97513831 
   54900    42.261696    4253.4134    2118.2543   -6610.6464   -4492.3921   0.97513831 
   55000    42.302624    4156.7674    2120.3057   -6618.9788   -4498.6731   0.97513831 
   55100    42.019166    4154.3296    2106.0981   -6642.6098   -4536.5117   0.97513831 
   55200    42.151743    4187.9195    2112.7432   -6649.0492    -4536.306   0.97513831 
   55300    42.064837    4129.9001    2108.3873   -6643.7589   -4535.3717   0.97513831 
   55400    42.108675    4257.1174    2110.5845   -6642.3087   -4531.7241   0.97513831 
   55500    42.244411    4098.2014    2117.3879   -6662.1839   -4544.7959   0.97513831 
   55600    42.400559       4152.9    2125.2144    -6631.113   -4505.8986   0.97513831 
   55700    42.212558      4092.51    2115.7914   -6634.5821   -4518.7907   0.97513831 
   55800    42.094706    4114.2253    2109.8844   -6621.0395   -4511.1552   0.97513831 
   55900    42.708908    4180.5927    2140.6696   -6651.6699   -4511.0003   0.97513831 
   56000    42.856217    4182.0339    2148.0531   -6633.6261    -4485.573   0.97513831 
   56100     42.61221    4119.3976    2135.8229   -6655.4123   -4519.5894   0.97513831 
   56200    42.829096    4113.1796    2146.6937   -6645.6907    -4498.997   0.97513831 
   56300    42.670254    4145.1114    2138.7322   -6683.7953   -4545.0631   0.97513831 
   56400    42.564846    4198.7552    2133.4489   -6683.5712   -4550.1224   0.97513831 
   56500    42.839715    4187.4211     2147.226   -6681.7439    -4534.518   0.97513831 
   56600    43.246295    4173.9476    2167.6047   -6677.1141   -4509.5095   0.97513831 
   56700     43.07444    4152.9992    2158.9909   -6675.6058   -4516.6149   0.97513831 
   56800    42.960049    4161.5251    2153.2574   -6712.3502   -4559.0929   0.97513831 
   56900    42.736191    4112.6117    2142.0371   -6662.5359   -4520.4988   0.97513831 
   57000    43.068673      4137.45    2158.7019   -6666.4706   -4507.7688   0.97513831 
   57100    43.054467     4162.394    2157.9898   -6692.3163   -4534.3265   0.97513831 
   57200    42.764958    4156.8511     2143.479   -6681.5307   -4538.0518   0.97513831 
   57300    43.392809    4164.5255    2174.9483   -6690.5697   -4515.6214   0.97513831 
   57400    42.760337    4146.1398    2143.2474    -6651.141   -4507.8937   0.97513831 
   57500    42.695756    4141.2289    2140.0104   -6682.8838   -4542.8734   0.97513831 
   57600    42.936084     4119.193    2152.0562   -6691.9886   -4539.9324   0.97513831 
   57700    43.131437    4196.7472    2161.8477   -6658.9911   -4497.1434   0.97513831 
   57800    43.151782    4145.3288    2162.8675   -6664.7231   -4501.8556   0.97513831 
   57900    43.461266    4117.9827    2178.3795   -6642.0843   -4463.7047   0.97513831 
   58000    43.265569    4147.2864    2168.5708   -6628.4643   -4459.8936   0.97513831 
   58100    43.295331    4151.4631    2170.0625   -6700.0662   -4530.0038   0.97513831 
   58200    43.272406    4208.7464    2168.9134   -6637.1613   -4468.2479   0.97513831 
   58300    43.422123    4049.5083    2176.4176    -6690.057   -4513.6394   0.97513831 
   58400    43.204455    3996.8376    2165.5076    -6669.172   -4503.6645   0.97513831 
   58500    43.309362     4040.372    2170.7657   -6664.1578    -4493.392   0.97513831 
   58600    44.207853    3961.0205    2215.8002   -6657.1103   -4441.3101   0.97513831 
   58700    43.890404    4054.8557    2199.8889    -6644.752   -4444.8631   0.97513831 
   58800    43.547936    4088.7372    2182.7236   -6662.9071   -4480.1835   0.97513831 
   58900    43.384323    4064.2081     2174.523   -6669.7517   -4495.2287   0.97513831 
   59000    43.740118    4050.3237    2192.3562   -6698.7205   -4506.3643   0.97513831 
   59100    43.997098    4093.3736    2205.2367   -6651.0002   -4445.7636   0.97513831 
   59200    43.532814    4066.5417    2181.9657   -6680.6323   -4498.6666   0.97513831 
   59300    44.033802    4080.0235    2207.0764   -6661.0726   -4453.9962   0.97513831 
   59400    44.224656     4141.265    2216.6424   -6671.4878   -4454.8454   0.97513831 
   59500    43.639109    3994.6122    2187.2934   -6669.9536   -4482.6601   0.97513831 
   59600    44.573574    4192.5328     2234.131   -6662.5703   -4428.4393   0.97513831 
   59700    43.994095    4120.5758    2205.0862   -6662.6046   -4457.5185   0.97513831 
   59800    44.021707    4117.3616    2206.4701   -6684.1463   -4477.6762   0.97513831 
   59900    43.805832    4051.8908      2195.65   -6681.0484   -4485.3984   0.97513831 
   60000    43.913918    4099.7661    2201.0675   -6733.0931   -4532.0256   0.97513831 
   60100    43.733112    4082.9764    2192.0051   -6676.5517   -4484.5467   0.97513831 
   60200    44.153998    4156.0716    2213.1009   -6697.1784   -4484.0775   0.97513831 
   60300    43.790325    4119.6423    2194.8727   -6670.1351   -4475.2624   0.97513831 
   60400    44.401144    4097.3012    2225.4884    -6715.205   -4489.7166   0.97513831 
   60500    44.307092    4042.6556    2220.7743   -6717.7819   -4497.0076   0.97513831 
   60600    43.869417    4065.3706     2198.837    -6682.137      -4483.3   0.97513831 
   60700    44.214924    4068.4605    2216.1546   -6682.4585   -4466.3039   0.97513831 
   60800    44.041848     4078.559    2207.4797   -6654.3489   -4446.8693   0.97513831 
   60900    44.790092    3931.1946    2244.9834   -6684.3127   -4439.3293   0.97513831 
   61000    44.422065    4043.0956     2226.537   -6715.2075   -4488.6705   0.97513831 
   61100    44.288966    4061.5973    2219.8658   -6685.7263   -4465.8605   0.97513831 
   61200    44.773732    4132.8824    2244.1634   -6702.4032   -4458.2398   0.97513831 
   61300    44.451749    4014.8926    2228.0248     -6699.96   -4471.9352   0.97513831 
   61400    44.327615    4061.9258     2221.803   -6685.6003   -4463.7974   0.97513831 
   61500    44.628182    4059.1669    2236.8681   -6690.2701    -4453.402   0.97513831 
   61600    44.617692    4036.1837    2236.3423   -6691.0827   -4454.7404   0.97513831 
   61700    45.076667    4023.0582    2259.3472   -6694.0373   -4434.6901   0.97513831 
   61800    44.490351    3994.5422    2229.9596   -6682.7795   -4452.8198   0.97513831 
   61900    44.678244    4069.2283    2239.3773   -6700.2221   -4460.8448   0.97513831 
   62000    44.480196    4007.0489    2229.4506    -6726.413   -4496.9624   0.97513831 
   62100    44.396515    3934.3742    2225.2564    -6686.838   -4461.5816   0.97513831 
   62200    45.000079    3984.0743    2255.5084   -6686.6356   -4431.1272   0.97513831 
   62300    45.067741    3994.5599    2258.8998    -6709.966   -4451.0662   0.97513831 
   62400    45.141803    3915.0202    2262.6119   -6722.7573   -4460.1453   0.97513831 
   62500    44.906954    4011.1926    2250.8408   -6689.7487   -4438.9079   0.97513831 
   62600    44.484711    4037.3494    2229.6769   -6694.0283   -4464.3514   0.97513831 
   62700     45.14862    4046.2829    2262.9536   -6688.9635   -4426.0099   0.97513831 
   62800    45.022477    4097.4488    2256.6311   -6674.0146   -4417.3836   0.97513831 
   62900    45.229436    3939.4588    2267.0043   -6708.1917   -4441.1874   0.97513831 
   63000     44.80311    4054.5186    2245.6358    -6676.298   -4430.6621   0.97513831 
   63100    44.550047    4072.2151    2232.9518   -6680.4807    -4447.529   0.97513831 
   63200    45.166869     3982.515    2263.8683   -6698.1411   -4434.2728   0.97513831 
   63300    45.319775    3983.2503    2271.5323   -6720.4551   -4448.9229   0.97513831 
   63400    45.689845    4063.9353    2290.0811   -6686.6032   -4396.5221   0.97513831 
   63500    45.148376    4028.3004    2262.9414   -6694.7906   -4431.8492   0.97513831 
   63600     45.42851    3972.1726    2276.9824   -6702.6638   -4425.6814   0.97513831 
   63700    45.478593    4013.8572    2279.4927   -6711.1069   -4431.6142   0.97513831 
   63800    45.155125    4090.3924    2263.2796   -6708.7531   -4445.4734   0.97513831 
   63900     44.98979     4037.312    2254.9927   -6711.5492   -4456.5565   0.97513831 
   64000    45.803498    4018.9408    2295.7776   -6697.5548   -4401.7772   0.97513831 
   64100    45.886951    4040.2872    2299.9605   -6703.7828   -4403.8223   0.97513831 
   64200    45.979645     3938.978    2304.6065   -6694.6611   -4390.0546   0.97513831 
   64300    46.134129    4018.2098    2312.3496   -6674.2457   -4361.8961   0.97513831 
   64400    45.818431    3983.8245    2296.5261   -6675.6794   -4379.1533   0.97513831 
   64500    46.018325     4019.275    2306.5453   -6692.1229   -4385.5776   0.97513831 
   64600    45.953908    3992.1908    2303.3165    -6681.378   -4378.0615   0.97513831 
   64700    45.791428    3970.7663    2295.1726   -6698.1015   -4402.9288   0.97513831 
   64800    45.995226    4029.5988    2305.3875   -6705.6905    -4400.303   0.97513831 
   64900    45.456694    3971.6823     2278.395   -6701.7281    -4423.333   0.97513831 
   65000    45.730342    4003.6455    2292.1109   -6686.8488   -4394.7379   0.97513831 
   65100    45.565111    3948.5874    2283.8291   -6704.4483   -4420.6192   0.97513831 
   65200    46.042223    4015.1478    2307.7431   -6715.0521   -4407.3091   0.97513831 
   65300    46.179902    3967.5848    2314.6439   -6739.2351   -4424.5912   0.97513831 
   65400    46.068357    3929.8663     2309.053   -6698.2393   -4389.1863   0.97513831 
   65500    46.727131    3892.5033    2342.0722   -6756.5798   -4414.5075   0.97513831 
   65600    46.863351    3926.5458    2348.8999   -6720.2667   -4371.3668   0.97513831 
   65700    46.056776    3930.5146    2308.4725   -6714.2232   -4405.7507   0.97513831 
   65800    46.215496    3891.4757    2316.4279   -6722.2801   -4405.8521   0.97513831 
   65900     46.40662      3886.03    2326.0075   -6701.6618   -4375.6543   0.97513831 
   66000    46.199353    3927.7088    2315.6188   -6679.8982   -4364.2794   0.97513831 
   66100    46.731499    3886.7633    2342.2912   -6723.8306   -4381.5394   0.97513831 
   66200      46.0457    3874.9528    2307.9174   -6734.9355   -4427.0181   0.97513831 
   66300    45.903823    3996.5782    2300.8062   -6699.2341   -4398.4279   0.97513831 
   66400    46.927954    3976.3372     2352.138   -6723.4085   -4371.2706   0.97513831 
   66500    46.852111    3971.7732    2348.3366   -6697.4296    -4349.093   0.97513831 
   66600    46.190515    3936.0463    2315.1758   -6736.4108    -4421.235   0.97513831 
   66700    46.790144     3884.954    2345.2306   -6680.3751   -4335.1445   0.97513831 
   66800    46.790166    4011.0096    2345.2317   -6693.9406   -4348.7089   0.97513831 
   66900    46.532219    4031.4037    2332.3028   -6677.2654   -4344.9626   0.97513831 
   67000    47.201492    3943.9279    2365.8483   -6716.1888   -4350.3405   0.97513831 
   67100    47.493581    3838.7411    2380.4885   -6706.3464   -4325.8578   0.97513831 
   67200    46.523529    3861.1698    2331.8673   -6715.8196   -4383.9524   0.97513831 
   67300    46.815033    3993.9886    2346.4781   -6737.8086   -4391.3304   0.97513831 
   67400     47.20983     3985.874    2366.2663   -6738.7674   -4372.5011   0.97513831 
   67500    47.062156    3902.9859    2358.8645   -6700.3822   -4341.5177   0.97513831 
   67600    47.251144    3968.0158     2368.337   -6736.9179   -4368.5809   0.97513831 
   67700    46.574535    3867.4317    2334.4238   -6749.3376   -4414.9138   0.97513831 
   67800    46.606501    3923.9449     2336.026   -6749.9371   -4413.9111   0.97513831 
   67900    47.284592    3941.8563    2370.0135   -6714.5801   -4344.5666   0.97513831 
   68000    46.681428    3919.5634    2339.7815   -6732.2584   -4392.4769   0.97513831 
   68100    46.957359    3853.3968    2353.6118   -6759.7408    -4406.129   0.97513831 
   68200     47.34857    3881.1293    2373.2202    -6750.426   -4377.2058   0.97513831 
   68300    47.361315     3911.005     2373.859   -6740.0465   -4366.1875   0.97513831 
   68400    47.674334    3893.5238    2389.5483   -6735.6112   -4346.0629   0.97513831 
   68500    46.999048    3909.9765    2355.7014    -6724.201   -4368.4996   0.97513831 
   68600    46.914086    3845.2235    2351.4429   -6706.0047   -4354.5618   0.97513831 
   68700     47.27326    3894.8964    2369.4455   -6705.8137   -4336.3682   0.97513831 
   68800    47.595255    3932.0355    2385.5847   -6693.8036   -4308.2189   0.97513831 
   68900    46.893238    3913.1279    2350.3979   -6717.6282   -4367.2302   0.97513831 
   69000    47.351031    3873.7692    2373.3436   -6718.3073   -4344.9637   0.97513831 
   69100    47.238804    3865.5041    2367.7185   -6711.5073   -4343.7888   0.97513831 
   69200    47.801999    3917.2336    2395.9471   -6740.8428   -4344.8957   0.97513831 
   69300    47.391361    3849.0413     2375.365   -6734.3813   -4359.0163   0.97513831 
   69400    47.581763    3887.8971    2384.9084   -6697.2492   -4312.3408   0.97513831 
   69500    47.309066    3862.3652    2371.2402   -6740.5034   -4369.2632   0.97513831 
   69600       47.758    3830.1262    2393.7418   -6713.8623   -4320.1206   0.97513831 
   69700    47.855982    3849.2018    2398.6529   -6725.3883   -4326.7355   0.97513831 
   69800    47.903846      3843.04     2401.052    -6691.464    -4290.412   0.97513831 
   69900    47.456587    3915.9851    2378.6343   -6714.7514   -4336.1171   0.97513831 
   70000    47.927401    3830.9727    2402.2326    -6770.866   -4368.6334   0.97513831 
   70100    47.615373    3815.2989     2386.593   -6746.4062   -4359.8132   0.97513831 
   70200    48.166209    3762.3472    2414.2022   -6743.3257   -4329.1236   0.97513831 
   70300    48.552846    3761.1231    2433.5813   -6727.1275   -4293.5461   0.97513831 
   70400    48.492153    3853.8714    2430.5393   -6679.4856   -4248.9464   0.97513831 
   70500    47.957157    3834.3368     2403.724   -6715.4741   -4311.7501   0.97513831 
   70600    47.786521    3954.1899    2395.1713   -6687.0425   -4291.8711   0.97513831 
   70700    48.909236     3843.663    2451.4444   -6718.5421   -4267.0977   0.97513831 
   70800      48.4023    3777.9963    2426.0356   -6707.2373   -4281.2017   0.97513831 
   70900    48.646419    3888.4239    2438.2714   -6674.0765   -4235.8051   0.97513831 
   71000    48.459563    3846.1772    2428.9058   -6734.8607   -4305.9549   0.97513831 
   71100    48.630061    3884.8843    2437.4515   -6701.6954   -4264.2439   0.97513831 
   71200    48.653228     3867.705    2438.6127   -6702.4753   -4263.8626   0.97513831 
   71300    48.296559     3754.179    2420.7357   -6740.1942   -4319.4585   0.97513831 
   71400    48.307973    3891.1147    2421.3078   -6702.1205   -4280.8127   0.97513831 
   71500    48.269749    3934.8133    2419.3918   -6692.8444   -4273.4526   0.97513831 
   71600    48.530857    3841.1727    2432.4792   -6748.7133   -4316.2341   0.97513831 
   71700    48.415285    3779.0961    2426.6865   -6732.8712   -4306.1847   0.97513831 
   71800    47.976419    3781.8488    2404.6895   -6734.2238   -4329.5343   0.97513831 
   71900    48.991668    3887.3106    2455.5761     -6742.94   -4287.3639   0.97513831 
   72000    48.618608     3854.034    2436.8775   -6709.9155   -4273.0381   0.97513831 
   72100    49.100836    3815.9178    2461.0479   -6747.3677   -4286.3198   0.97513831 
   72200    47.898358    3859.8005    2400.7769   -6736.1733   -4335.3964   0.97513831 
   72300    48.189848    3803.4013     2415.387   -6725.4219   -4310.0348   0.97513831 
   72400    48.759004    3902.6147    2443.9144   -6721.8934    -4277.979   0.97513831 
   72500    48.296123    3839.6085    2420.7138   -6681.3263   -4260.6125   0.97513831 
   72600    48.540779    3810.9419    2432.9765   -6696.1394    -4263.163   0.97513831 
   72700     48.84008    3774.0542    2447.9782   -6699.3991    -4251.421   0.97513831 
   72800    49.063815    3837.5428    2459.1923   -6711.4861   -4252.2938   0.97513831 
   72900    49.344926    3819.9809    2473.2822   -6715.9938   -4242.7116   0.97513831 
   73000    48.759266    3756.7404    2443.9276   -6701.8921   -4257.9645   0.97513831 
   73100    49.079391    3673.9228     2459.973   -6738.1248   -4278.1519   0.97513831 
   73200    49.038041     3894.863    2457.9004   -6708.2449   -4250.3445   0.97513831 
   73300    49.506986    3777.1733     2481.405   -6714.2673   -4232.8623   0.97513831 
   73400     49.04931     3706.281    2458.4653   -6683.6243    -4225.159   0.97513831 
   73500    49.374879    3760.6052    2474.7835   -6756.4904   -4281.7069   0.97513831 
   73600    48.821157    3803.9068    2447.0297   -6732.8988   -4285.8691   0.97513831 
   73700    48.495378    3782.9627    2430.7009   -6691.6041   -4260.9032   0.97513831 
   73800    48.971718    3713.7247    2454.5761   -6722.3613   -4267.7851   0.97513831 
   73900    48.986534    3756.5529    2455.3188     -6738.06   -4282.7412   0.97513831 
   74000    49.054736    3686.4007    2458.7372   -6714.4135   -4255.6763   0.97513831 
   74100    49.409853    3782.8267    2476.5365   -6723.8273   -4247.2908   0.97513831 
   74200     49.57693    3803.1859    2484.9108   -6680.9198    -4196.009   0.97513831 
   74300    48.757159    3858.0246     2443.822   -6743.8654   -4300.0434   0.97513831 
   74400    49.556002    3797.3563    2483.8619   -6722.1141   -4238.2522   0.97513831 
   74500    49.358308    3791.0222     2473.953   -6726.2824   -4252.3295   0.97513831 
   74600    49.354734    3711.7212    2473.7738   -6717.4326   -4243.6588   0.97513831 
   74700    49.277697    3772.3313    2469.9126   -6738.7545    -4268.842   0.97513831 
   74800    49.094652    3757.2744    2460.7379   -6724.2336   -4263.4957   0.97513831 
   74900    49.364996    3744.5124    2474.2882   -6739.1351   -4264.8469   0.97513831 
   75000    49.327976    3685.1381    2472.4326   -6717.1837    -4244.751   0.97513831 
   75100    49.591756    3788.0248    2485.6539   -6722.9104   -4237.2565   0.97513831 
   75200    50.082216    3749.8734    2510.2369   -6747.3766   -4237.1397   0.97513831 
   75300    50.451314    3804.7622     2528.737   -6724.9317   -4196.1948   0.97513831 
   75400    49.830275    3836.1598     2497.609   -6740.9301   -4243.3211   0.97513831 
   75500    49.858931    3816.4708    2499.0454    -6688.725   -4189.6797   0.97513831 
   75600    50.020416    3790.1411    2507.1393   -6744.6402   -4237.5009   0.97513831 
   75700    50.269855    3702.9871    2519.6418   -6728.5063   -4208.8645   0.97513831 
   75800    50.271062     3753.842    2519.7023   -6728.6485   -4208.9462   0.97513831 
   75900    49.951831         3797    2503.7017   -6680.0264   -4176.3246   0.97513831 
   76000    50.028485    3842.1048    2507.5438   -6736.6171   -4229.0733   0.97513831 
   76100    50.216023    3776.7982    2516.9436   -6719.6103   -4202.6667   0.97513831 
   76200    49.971177    3758.1239    2504.6714   -6760.5189   -4255.8475   0.97513831 
   76300    50.215233    3777.7172     2516.904   -6752.9257   -4236.0217   0.97513831 
   76400    50.816552    3765.7456    2547.0435   -6712.2429   -4165.1994   0.97513831 
   76500    49.747454    3785.7754    2493.4578   -6713.7096   -4220.2518   0.97513831 
   76600     49.94788    3747.3147    2503.5037   -6747.0021   -4243.4985   0.97513831 
   76700    49.954179    3761.0069    2503.8194   -6741.8265   -4238.0071   0.97513831 
   76800    50.722282    3711.3843    2542.3185   -6761.6259   -4219.3074   0.97513831 
   76900    50.386605    3737.4784    2525.4936   -6696.4054   -4170.9118   0.97513831 
   77000    50.765378    3719.0661    2544.4786   -6735.5219   -4191.0434   0.97513831 
   77100    50.290614    3688.6562    2520.6823   -6780.0184   -4259.3361   0.97513831 
   77200    50.985746    3759.9065    2555.5239   -6718.7397   -4163.2158   0.97513831 
   77300    50.983079     3824.688    2555.3903   -6751.9718   -4196.5815   0.97513831 
   77400    50.457009    3757.0953    2529.0224   -6722.6233   -4193.6009   0.97513831 
   77500    51.182288    3740.7616    2565.3751   -6702.8102   -4137.4351   0.97513831 
   77600    51.063503    3791.3112    2559.4213   -6707.6905   -4148.2693   0.97513831 
   77700    50.712173     3711.412    2541.8118   -6675.6635   -4133.8517   0.97513831 
   77800    50.531712    3751.2841    2532.7667   -6737.1603   -4204.3936   0.97513831 
   77900    50.469632    3693.0664    2529.6551    -6719.555   -4189.8999   0.97513831 
   78000    50.787256    3722.4998    2545.5751   -6713.9512    -4168.376   0.97513831 
   78100    51.260146    3674.2475    2569.2775   -6720.8298   -4151.5523   0.97513831 
   78200    51.147955    3791.8909    2563.6542    -6729.788   -4166.1338   0.97513831 
   78300    50.695784    3732.7678    2540.9903    -6719.055   -4178.0647   0.97513831 
   78400    50.811883    3644.0473    2546.8095   -6726.8672   -4180.0577   0.97513831 
   78500     52.21999    3695.7544    2617.3871   -6728.7823   -4111.3952   0.97513831 
   78600    50.582778    3765.3043    2535.3262   -6705.8865   -4170.5603   0.97513831 
   78700    51.082468    3592.1403    2560.3718   -6748.3782   -4188.0063   0.97513831 
   78800    51.181576    3792.0737    2565.3394   -6707.5992   -4142.2598   0.97513831 
   78900    51.318495     3716.914    2572.2021   -6710.4241    -4138.222   0.97513831 
   79000    50.872871    3690.4572    2549.8664   -6726.0775   -4176.2111   0.97513831 
   79100     51.11705    3701.5472    2562.1052   -6736.2272    -4174.122   0.97513831 
   79200    50.526695    3776.7071    2532.5152   -6734.0247   -4201.5095   0.97513831 
   79300    50.606769     3577.739    2536.5287    -6695.274   -4158.7453   0.97513831 
   79400    51.468022    3637.5398    2579.6967   -6734.7655   -4155.0688   0.97513831 
   79500    51.334956    3635.9399    2573.0272   -6722.6068   -4149.5796   0.97513831 
   79600    51.546921    3606.3674    2583.6513   -6710.3996   -4126.7482   0.97513831 
   79700     50.11352    3609.1272    2511.8059   -6729.4113   -4217.6054   0.97513831 
   79800    51.379836    3627.8171    2575.2766   -6703.9467   -4128.6701   0.97513831 
   79900    51.131023    3586.8147    2562.8055   -6718.9716   -4156.1661   0.97513831 
   80000    51.700593    3605.9401    2591.3537     -6689.63   -4098.2763   0.97513831 
   80100    51.527291    3670.0857    2582.6674   -6698.2002   -4115.5328   0.97513831 
   80200    51.530451    3621.4246    2582.8258   -6669.4626   -4086.6368   0.97513831 
   80300    51.960573    3564.7611    2604.3845   -6717.2284   -4112.8438   0.97513831 
   80400     51.39369    3636.5487     2575.971    -6699.276    -4123.305   0.97513831 
   80500    51.830275    3773.8859    2597.8537   -6676.2199   -4078.3662   0.97513831 
   80600    51.464344    3631.0539    2579.5124   -6728.8564    -4149.344   0.97513831 
   80700    51.579027    3579.7359    2585.2605   -6748.5564   -4163.2959   0.97513831 
   80800    51.742229     3612.392    2593.4406   -6724.5026   -4131.0619   0.97513831 
   80900    52.092543    3587.9871    2610.9992   -6728.8909   -4117.8918   0.97513831 
   81000    51.587583    3624.6613    2585.6894   -6742.8674    -4157.178   0.97513831 
   81100    51.903483    3675.8691     2601.523   -6711.5705   -4110.0474   0.97513831 
   81200    51.376741    3542.9425    2575.1215   -6758.6807   -4183.5592   0.97513831 
   81300    51.684973    3623.3196    2590.5708   -6766.4154   -4175.8446   0.97513831 
   81400     52.22098    3706.9821    2617.4367   -6708.5314   -4091.0947   0.97513831 
   81500    51.554465    3632.4167    2584.0294   -6725.7427   -4141.7132   0.97513831 
   81600    52.706558    3530.0492     2641.775   -6723.6509   -4081.8759   0.97513831 
   81700     52.43831    3514.7579    2628.3298   -6728.9975   -4100.6677   0.97513831 
   81800    52.550859    3596.2111     2633.971   -6711.9715   -4078.0005   0.97513831 
   81900     52.73761    3457.3143    2643.3314   -6747.0561   -4103.7247   0.97513831 
   82000    51.931369    3587.2165    2602.9208   -6726.7163   -4123.7955   0.97513831 
   82100    52.366528     3561.434    2624.7319   -6731.7922   -4107.0603   0.97513831 
   82200    52.096005    3590.4139    2611.1727   -6758.8583   -4147.6856   0.97513831 
   82300    52.537612    3554.0561    2633.3071   -6782.0109   -4148.7038   0.97513831 
   82400    52.334097    3622.1234    2623.1064   -6708.8167   -4085.7103   0.97513831 
   82500    52.251283    3671.5669    2618.9556   -6678.6786    -4059.723   0.97513831 
   82600    52.655235    3561.6067    2639.2026   -6731.3511   -4092.1485   0.97513831 
   82700    52.311352    3603.7661    2621.9664   -6720.6685   -4098.7021   0.97513831 
   82800    52.560134      3713.99    2634.4359   -6689.9137   -4055.4778   0.97513831 
   82900    52.244463    3583.3087    2618.6138   -6745.1455   -4126.5317   0.97513831 
   83000    52.945447    3600.8551    2653.7487   -6714.7412   -4060.9925   0.97513831 
   83100    52.594706    3598.6557    2636.1688   -6728.3641   -4092.1954   0.97513831 
   83200    52.671857    3612.0412    2640.0357   -6728.8346   -4088.7989   0.97513831 
   83300    52.766665    3499.9083    2644.7877   -6707.2332   -4062.4455   0.97513831 
   83400    53.388561    3623.1278    2675.9586   -6755.3841   -4079.4255   0.97513831 
   83500    52.423698    3619.5922    2627.5974    -6718.445   -4090.8476   0.97513831 
   83600     52.79509    3566.6328    2646.2124   -6723.1968   -4076.9843   0.97513831 
   83700    53.334471    3634.0432    2673.2475   -6739.5486   -4066.3011   0.97513831 
   83800    52.722934     3550.774    2642.5958   -6707.7934   -4065.1976   0.97513831 
   83900     52.35147    3543.7671    2623.9772   -6726.5216   -4102.5445   0.97513831 
   84000     53.04253    3528.7229    2658.6147   -6701.4066   -4042.7918   0.97513831 
   84100    53.293345    3555.2281    2671.1861   -6751.1219   -4079.9358   0.97513831 
   84200    53.498399    3601.1347    2681.4639   -6709.5284   -4028.0644   0.97513831 
   84300    52.342146    3614.9126    2623.5098   -6723.2554   -4099.7456   0.97513831 
   84400    53.267232     3648.985    2669.8773   -6762.7134   -4092.8361   0.97513831 
   84500    53.454044    3596.0374    2679.2408   -6740.4383   -4061.1976   0.97513831 
   84600    53.209065     3571.377    2666.9618   -6687.0115   -4020.0496   0.97513831 
   84700    53.269084     3475.672    2669.9701   -6679.1017   -4009.1316   0.97513831 
   84800    53.065242     3649.933    2659.7531   -6712.3817   -4052.6286   0.97513831 
   84900    53.073964    3546.7601    2660.1902   -6716.1103     -4055.92   0.97513831 
   85000    53.839545    3521.7883     2698.563   -6709.5564   -4010.9935   0.97513831 
   85100    53.603131    3550.8174    2686.7134   -6725.6253   -4038.9119   0.97513831 
   85200    53.920787     3556.032     2702.635   -6742.9343   -4040.2993   0.97513831 
   85300    52.649031    3573.5398    2638.8916   -6764.3741   -4125.4825   0.97513831 
   85400    54.199831    3577.3555    2716.6213   -6713.4245   -3996.8031   0.97513831 
   85500    52.764851    3545.2606    2644.6968   -6740.5662   -4095.8694   0.97513831 
   85600    53.531274    3598.2353    2683.1117   -6716.0019   -4032.8902   0.97513831 
   85700    53.166042    3614.9997    2664.8054   -6748.8145   -4084.0091   0.97513831 
   85800    54.149312    3570.5614    2714.0892   -6714.8129   -4000.7237   0.97513831 
   85900    53.750602    3507.9555    2694.1049   -6712.9595   -4018.8546   0.97513831 
   86000    53.819529    3508.0745    2697.5597   -6706.2531   -4008.6933   0.97513831 
[...]
  179300    351.27452    2953.4452    17606.694    7025.4171    24632.111   0.97513831 
  179400    352.30376    2984.8417    17658.282    6879.2006    24537.483   0.97513831 
  179500    349.90466    3012.9964    17538.034    6930.8241    24468.858   0.97513831 
  179600     352.2085    2955.6182    17653.508    6818.8144    24472.322   0.97513831 
  179700    351.74131    2973.4092    17630.091    6867.7496     24497.84   0.97513831 
  179800    352.51514    3178.6637    17668.877    7098.4607    24767.338   0.97513831 
  179900    353.58569     3063.256    17722.535    6981.3839    24703.919   0.97513831 
  180000    350.68253    2956.4141    17577.022    6844.6118    24421.634   0.97513831 
  180100    350.63411    2937.9846    17574.595    7168.1767    24742.772   0.97513831 
  180200    353.72004    3072.0731    17729.269    7004.7035    24733.973   0.97513831 
  180300    351.80595    2870.5838    17633.331    6961.2139    24594.544   0.97513831 
  180400    355.58696    2891.2551    17822.844    6892.3955    24715.239   0.97513831 
  180500    354.56046    2933.1197    17771.393    6826.0901    24597.483   0.97513831 
  180600    349.36672    2743.3056    17511.071    6812.0844    24323.155   0.97513831 
  180700    353.85381    2782.2269    17735.974    6891.9606    24627.935   0.97513831 
  180800    354.44485    2962.7534    17765.598     6963.223    24728.821   0.97513831 
  180900     351.0952    3119.0684    17597.707    6839.4125    24437.119   0.97513831 
  181000    352.53786    3079.0983    17670.016    7111.9945    24782.011   0.97513831 
  181100    355.55157    2775.4133     17821.07    7005.5674    24826.637   0.97513831 
  181200    352.57819    2792.0665    17672.037    6863.2553    24535.292   0.97513831 
  181300    350.24639    2912.5375    17555.162    6882.3908    24437.553   0.97513831 
  181400    348.06987    2852.1045     17446.07    6993.6761    24439.746   0.97513831 
  181500     350.9259    2692.1719     17589.22    6972.7795        24562   0.97513831 
  181600    351.38735    2771.3389    17612.349    6893.4697    24505.819   0.97513831 
  181700    353.66959     2633.403    17726.741    7036.0206    24762.761   0.97513831 
  181800     357.2162     2882.615    17904.505    7081.4869    24985.992   0.97513831 
  181900    354.01844    3082.6712    17744.226    7005.0417    24749.268   0.97513831 
  182000    352.92482    2983.5636    17689.411    7005.2368    24694.648   0.97513831 
  182100    353.46106    2928.7065    17716.289    6959.6106    24675.899   0.97513831 
  182200    356.10393     2890.081    17848.756    7028.2379    24876.994   0.97513831 
  182300    355.04389    2856.6881    17795.624    6923.7781    24719.402   0.97513831 
  182400    352.50106    2774.2155    17668.171    6980.7859    24648.957   0.97513831 
  182500     357.4757    2905.6696    17917.512    7050.4146    24967.927   0.97513831 
  182600    358.29521    2826.5989    17958.588    6915.0543    24873.642   0.97513831 
  182700    351.35567    2777.3333    17610.761    7059.8603    24670.622   0.97513831 
  182800    352.72363    2920.4691    17679.327     6874.739    24554.066   0.97513831 
  182900     355.4704    3028.6769    17817.002    7063.8079    24880.809   0.97513831 
  183000    351.58293    3005.3245    17622.153    6985.8999    24608.052   0.97513831 
  183100     353.1096    2940.4558    17698.673    7097.5936    24796.266   0.97513831 
  183200     355.0848    2902.8236    17797.674    7149.1776    24946.852   0.97513831 
  183300    355.34088     2835.851     17810.51    7068.8517    24879.362   0.97513831 
  183400    356.86891    2806.2184    17887.098    6990.2528    24877.351   0.97513831 
  183500    356.57057    2706.4718    17872.144    7113.0271    24985.171   0.97513831 
  183600    352.57054    2895.0201    17671.654    7100.9747    24772.629   0.97513831 
  183700    358.87536     2916.954    17987.666    6932.7744    24920.441   0.97513831 
  183800    352.99917    2907.3905    17693.138    7170.2958    24863.434   0.97513831 
  183900    357.01402    2908.3596    17894.371    6922.3453    24816.716   0.97513831 
  184000    356.22388    2873.2423    17854.768    7229.1098    25083.877   0.97513831 
  184100    356.33149    2749.5545    17860.161    7231.1002    25091.262   0.97513831 
  184200    356.36528    3027.1261    17861.855    7197.8775    25059.733   0.97513831 
  184300    357.22484    2937.5878    17904.938    6944.9895    24849.928   0.97513831 
  184400    355.28433     3068.447    17807.675    7073.6511    24881.326   0.97513831 
  184500    360.39881     2871.562    18064.025     7193.583    25257.608   0.97513831 
  184600    357.04804    2784.2899    17896.076    7044.6816    24940.758   0.97513831 
  184700    356.07625    2747.8681    17847.368    7241.5949    25088.963   0.97513831 
  184800    353.15857    2985.3229    17701.127    7078.4716    24779.599   0.97513831 
  184900    355.63359    2967.4254    17825.181    7230.2091     25055.39   0.97513831 
  185000    356.53341    2929.9282    17870.282    7097.8501    24968.132   0.97513831 
  185100    354.31519    2950.7282      17759.1    7107.8583    24866.958   0.97513831 
  185200    357.23698    2860.7122    17905.546    7128.1773    25033.724   0.97513831 
  185300     358.5062     3018.188    17969.163    7316.3494    25285.512   0.97513831 
  185400    360.84278    3041.7313    18086.278    7254.2047    25340.483   0.97513831 
  185500     358.6807      2975.52    17977.909    7056.3817    25034.291   0.97513831 
  185600    359.34325     2725.112    18011.118    7219.2102    25230.328   0.97513831 
  185700    356.62335     3004.196     17874.79    7137.6127    25012.402   0.97513831 
  185800    356.12295    2728.6175    17849.709    7138.2666    24987.976   0.97513831 
  185900    355.55386    2711.6025    17821.185    7060.5377    24881.722   0.97513831 
  186000     359.5789    2737.1824    18022.929    7285.4316    25308.361   0.97513831 
  186100    362.42168    3091.1106    18165.416    7000.5216    25165.938   0.97513831 
  186200    360.88588    2855.9763    18088.438     7185.156    25273.594   0.97513831 
  186300    361.54248    2820.1124    18121.348    7314.6065    25435.955   0.97513831 
  186400    364.71026    2854.7474    18280.125    7303.8588    25583.984   0.97513831 
  186500    360.28876    2860.5868    18058.509    7394.6008     25453.11   0.97513831 
  186600    358.30689    2790.8682    17959.173    7382.7528    25341.926   0.97513831 
  186700    357.19841     2879.083    17903.613    7224.7034    25128.317   0.97513831 
  186800    365.85839    3143.6157    18337.672    7284.6825    25622.354   0.97513831 
  186900     359.2685    2743.0121    18007.371    7237.4237    25244.795   0.97513831 
  187000    356.30787     2821.297    17858.978    7023.6035    24882.581   0.97513831 
  187100    356.99729    2928.5875    17893.533    7205.8548    25099.387   0.97513831 
  187200    360.68292     3075.312    18078.265    7107.0946     25185.36   0.97513831 
  187300    359.15766    2682.0533    18001.816    7183.7723    25185.588   0.97513831 
  187400    359.71566    2706.3369    18029.784    7158.8726    25188.656   0.97513831 
  187500     359.7411    2897.1072    18031.059    7087.4737    25118.533   0.97513831 
  187600    358.04652     2884.211    17946.123    7412.8984    25359.021   0.97513831 
  187700    360.74017    2620.4602    18081.135    7273.5673    25354.702   0.97513831 
  187800    360.98551    2718.6755    18093.432    7257.7611    25351.193   0.97513831 
  187900    356.10815    2858.4955    17848.967    7446.8847    25295.851   0.97513831 
  188000    359.68842    2855.8316    18028.418    7372.1811    25400.599   0.97513831 
  188100    362.47878    3046.5006    18168.278    7421.7072    25589.985   0.97513831 
  188200    361.05437    2948.8463    18096.883    7411.5315    25508.415   0.97513831 
  188300    361.34025     2808.581    18111.212    7537.3415    25648.554   0.97513831 
  188400    361.81668    2895.0954    18135.092    7367.1802    25502.272   0.97513831 
  188500    360.71493    2816.0781     18079.87    7306.2317    25386.101   0.97513831 
  188600    363.93037    3070.0993    18241.035    7369.0434    25610.078   0.97513831 
  188700    366.04324    3032.7842    18346.937    7222.2803    25569.217   0.97513831 
  188800    362.57175      3024.82    18172.938    7556.7108    25729.648   0.97513831 
  188900    363.27432     2999.603    18208.152    7363.6278     25571.78   0.97513831 
  189000    357.99379    3089.5164     17943.48     7518.906    25462.386   0.97513831 
  189100    361.60046    2781.1575    18124.254     7391.353    25515.607   0.97513831 
  189200    360.78334    2546.3133    18083.298    7349.5378    25432.836   0.97513831 
  189300     359.9612    2810.3813    18042.091    7377.1201    25419.211   0.97513831 
  189400    363.29882    2899.2276     18209.38    7269.7552    25479.135   0.97513831 
  189500    361.43345    2933.4756    18115.883    7174.0067     25289.89   0.97513831 
  189600    360.36799    2961.2891     18062.48    7347.5193    25409.999   0.97513831 
  189700     360.4007    3025.7746     18064.12    7376.3217    25440.441   0.97513831 
  189800    365.42775    2884.2875    18316.087    7341.6648    25657.752   0.97513831 
  189900    364.44877    2910.5657    18267.018    7394.4898    25661.508   0.97513831 
  190000    365.95146    2965.8773    18342.337    7495.0779    25837.414   0.97513831 
  190100    365.50632     2922.668    18320.025    7515.4815    25835.507   0.97513831 
  190200    367.60991     2751.385    18425.462    7453.0351    25878.497   0.97513831 
  190300    362.94037    2897.6973    18191.414    7536.9281    25728.342   0.97513831 
  190400    362.27623    3012.3321    18158.126    7488.1285    25646.254   0.97513831 
  190500    361.56781    2938.8963    18122.618    7287.7804    25410.398   0.97513831 
  190600    364.34873    2905.7292    18262.004    7353.7396    25615.744   0.97513831 
  190700    363.81481    3039.9224    18235.243    7514.3655    25749.608   0.97513831 
  190800    362.56163    3039.0708     18172.43    7540.6007    25713.031   0.97513831 
  190900    366.40807    2871.2161    18365.223    7413.1929    25778.416   0.97513831 
  191000    365.47166    2877.2734    18318.288    7178.1481    25496.436   0.97513831 
  191100    359.49164    2723.6328    18018.555    7300.1695    25318.725   0.97513831 
  191200    364.32923    2841.9438    18261.027     7481.901    25742.928   0.97513831 
  191300    365.77251    2762.7538    18333.367     7212.112    25545.479   0.97513831 
  191400    363.86543    2622.7028     18237.78     7472.125    25709.905   0.97513831 
  191500    365.33596    2675.2445    18311.486    7495.9105    25807.397   0.97513831 
  191600     364.5195    2848.4132    18270.564     7504.331    25774.895   0.97513831 
  191700    362.61058    2715.2178    18174.884    7365.2727    25540.157   0.97513831 
  191800    359.66399    2676.4854    18027.194    7406.8262     25434.02   0.97513831 
  191900    365.20857    2936.2446    18305.101    7402.2493    25707.351   0.97513831 
  192000    365.18192    2890.8044    18303.766    7467.4889    25771.255   0.97513831 
  192100    363.29868    2909.8813    18209.373    7662.7669     25872.14   0.97513831 
  192200    366.76745    2707.6649    18383.236     7170.289    25553.525   0.97513831 
  192300    367.72535    3082.5112    18431.248    7273.4238    25704.672   0.97513831 
  192400    363.02305    2886.3767    18195.558    7440.0456    25635.603   0.97513831 
  192500    366.20833    2704.9863    18355.212    7564.2233    25919.435   0.97513831 
  192600    366.47745    2688.3974    18368.701    7330.5201    25699.221   0.97513831 
  192700    365.70931    2811.2812    18330.199    7453.3314    25783.531   0.97513831 
  192800    367.85114    2740.8739    18437.553    7289.8576     25727.41   0.97513831 
  192900    364.64189     2819.035    18276.698    7576.1407    25852.839   0.97513831 
  193000    359.54698    2868.9622    18021.329    7569.3988    25590.728   0.97513831 
  193100    363.42023    2817.0952    18215.466     7431.804     25647.27   0.97513831 
  193200    371.68702    3039.1941    18629.816    7526.3664    26156.183   0.97513831 
  193300    370.55668    2871.9369    18573.161    7581.3118    26154.473   0.97513831 
  193400    367.11151    2786.7639    18400.481     7588.734    25989.215   0.97513831 
  193500    364.48697    2765.9748    18268.933    7694.8815    25963.814   0.97513831 
  193600    366.12434    2850.7372    18351.002     7652.355    26003.357   0.97513831 
  193700    366.17707    2849.9016    18353.645    7569.4264    25923.071   0.97513831 
  193800    363.57201    2825.7059    18223.073    7434.5102    25657.583   0.97513831 
  193900    367.86818    2781.1936    18438.407    7310.9242    25749.331   0.97513831 
  194000    364.74949    2476.8851    18282.091    7770.7496     26052.84   0.97513831 
  194100    366.67754    2526.0842    18378.729    7637.5261    26016.256   0.97513831 
  194200    362.03842    2688.0037    18146.206    7697.4612    25843.667   0.97513831 
  194300    368.40965    2760.2398    18465.547    7394.8192    25860.366   0.97513831 
  194400    366.45749    2816.3682      18367.7     7661.994    26029.694   0.97513831 
  194500    366.21888     2869.827     18355.74    7550.7694    25906.509   0.97513831 
  194600    365.79872     2729.648    18334.681    7392.9436    25727.625   0.97513831 
  194700    367.18924    2762.6539    18404.377    7553.3782    25957.755   0.97513831 
  194800    364.43287    2706.7817    18266.221    7566.4687     25832.69   0.97513831 
  194900    366.20256      2431.29    18354.922    7440.8685    25795.791   0.97513831 
  195000     368.0014    2784.7475    18445.084    7854.4174    26299.502   0.97513831 
  195100    366.16341     2878.532     18352.96    7655.3217    26008.282   0.97513831 
  195200    369.36942    2786.9087    18513.652    7518.4534    26032.106   0.97513831 
  195300    367.49267    3089.9462    18419.585    7643.8936    26063.479   0.97513831 
  195400    370.40422    2837.3762    18565.519      7397.27    25962.789   0.97513831 
  195500     366.4622    2867.8589    18367.936    7543.6754    25911.611   0.97513831 
  195600    368.86311    2880.4482    18488.275    7419.2148     25907.49   0.97513831 
  195700    368.76322    2779.3516    18483.268    7507.1511     25990.42   0.97513831 
  195800    365.90325    2973.3901     18339.92    7789.3973    26129.317   0.97513831 
  195900    371.12136    2745.9591    18601.464    7708.6514    26310.115   0.97513831 
  196000    367.31205    2960.3434    18410.533    7567.1971     25977.73   0.97513831 
  196100    364.17962    2839.4633    18253.528    7599.9266    25853.454   0.97513831 
  196200    364.09241    2649.1422    18249.157    7714.3299    25963.487   0.97513831 
  196300    364.37168    2780.0338    18263.154    7690.3633    25953.518   0.97513831 
  196400    364.61941    2800.7361    18275.571    7623.3837    25898.955   0.97513831 
  196500    368.26967    2872.0759    18458.531     7576.878    26035.409   0.97513831 
  196600    370.74483    2745.8131    18582.591    7823.6135    26406.205   0.97513831 
  196700    370.09244    2960.7273    18549.892    7712.7773     26262.67   0.97513831 
  196800    366.86297    2909.5191    18388.024    7734.7766      26122.8   0.97513831 
  196900    366.24913    2778.0994    18357.257    7576.5511    25933.808   0.97513831 
  197000    370.69318    2875.9709    18580.003    7643.3047    26223.307   0.97513831 
  197100    370.30984    3068.8468    18560.789    7787.9624    26348.751   0.97513831 
  197200    368.47435    2802.4827     18468.79    7772.5774    26241.367   0.97513831 
  197300    368.60154    2735.3236    18475.165    7593.8425    26069.007   0.97513831 
  197400    367.56917    2800.8132     18423.42    7638.3774    26061.797   0.97513831 
  197500    372.59191    2727.6232    18675.171     7635.147    26310.318   0.97513831 
  197600    366.99103     2717.286    18394.442    7669.9222    26064.364   0.97513831 
  197700    368.94903    2807.1138    18492.582    7641.2865    26133.868   0.97513831 
  197800    369.80757    2739.2927    18535.614    7748.1439    26283.758   0.97513831 
  197900     370.1658    2750.3965    18553.569    7569.1731    26122.742   0.97513831 
  198000    372.45696     3011.791    18668.407    7782.8719    26451.279   0.97513831 
  198100     370.0313    2843.5571    18546.828    7699.3105    26246.138   0.97513831 
  198200    366.54073    3021.5198    18371.872    7673.1248    26044.997   0.97513831 
  198300    372.53257    2988.6683    18672.197    7635.3586    26307.555   0.97513831 
  198400    371.15138    2973.9328    18602.969    7735.8037    26338.772   0.97513831 
  198500     369.0612    2858.8003    18498.204    7761.8354    26260.039   0.97513831 
  198600    367.07563     2829.489    18398.683    7666.2725    26064.955   0.97513831 
  198700    365.61542    2762.4946    18325.493    7735.9928    26061.486   0.97513831 
  198800    368.84901    2987.3475    18487.569     7806.669    26294.238   0.97513831 
  198900    366.21759    3094.9943    18355.676    7547.5973    25903.273   0.97513831 
  199000    372.03107    2626.9005    18647.061    7706.9123    26353.973   0.97513831 
  199100    368.21581    2679.1288    18455.831    7881.6029    26337.434   0.97513831 
  199200    369.64106    2708.3438    18527.268    7903.9416    26431.209   0.97513831 
  199300    370.67344    2730.7416    18579.013    7687.1663     26266.18   0.97513831 
  199400    369.15214    2708.4614    18502.762    7904.5192    26407.281   0.97513831 
  199500    373.81135     2802.681    18736.292    7859.5831    26595.875   0.97513831 
  199600     374.3823    2629.0314     18764.91    7950.0089    26714.918   0.97513831 
  199700    372.08316    2815.1884    18649.672    7742.5697    26392.241   0.97513831 
  199800    368.08665    3014.6628    18449.357    7892.4329     26341.79   0.97513831 
  199900    367.49406    2962.4234    18419.655    7895.6855    26315.341   0.97513831 
  200000     368.9341    2783.6072    18491.834    7753.3294    26245.163   0.97513831 
  200100    368.91657    2483.7869    18490.955         7710    26200.955   0.97513831 
Loop time of 3167.07 on 12 procs for 100000 steps with 16816 atoms

Performance: 2.728 ns/day, 8.797 hours/ns, 31.575 timesteps/s
99.2% CPU use with 12 MPI tasks x 1 OpenMP threads

MPI task timing breakdown:
Section |  min time  |  avg time  |  max time  |%varavg| %total
---------------------------------------------------------------
Pair    | 2259.7     | 2348.7     | 2412       | 119.8 | 74.16
Bond    | 78.813     | 80.767     | 82.899     |  15.1 |  2.55
Kspace  | 608.24     | 668.88     | 749.04     | 208.7 | 21.12
Neigh   | 8.2406     | 8.2425     | 8.2447     |   0.1 |  0.26
Comm    | 31.572     | 41.831     | 60.632     | 113.7 |  1.32
Output  | 0.067985   | 0.078052   | 0.15294    |   8.1 |  0.00
Modify  | 11.53      | 12.088     | 12.435     |   9.8 |  0.38
Other   |            | 6.439      |            |       |  0.20

Nlocal:    1401.33 ave 1433 max 1359 min
Histogram: 1 0 0 3 1 2 1 1 1 2
Nghost:    11261.6 ave 11329 max 11217 min
Histogram: 2 1 4 0 1 1 1 0 0 2
Neighs:    2.44359e+06 ave 2.51696e+06 max 2.3788e+06 min
Histogram: 2 1 2 1 0 1 2 0 2 1

Total # of neighbors = 29323104
Ave neighs/atom = 1743.76
Ave special neighs/atom = 8.82969
Neighbor list builds = 132
Dangerous builds = 0
System init for write_restart ...
Ewald initialization ...
WARNING: Using 12-bit tables for long-range coulomb (../kspace.cpp:321)
  G vector (1/distance) = 0.143832
  estimated absolute RMS force accuracy = 0.040371
  estimated relative force accuracy = 0.000121576
  KSpace vectors: actual max1d max3d = 769 8 2456
                  kxmax kymax kzmax  = 7 6 8
Total wall time: 1:44:56
