LAMMPS (31 Mar 2017)
  using 1 OpenMP thread(s) per MPI task
Reading data file ...
  orthogonal box = (0 0 0) to (81.6 70.667 100)
  4 by 3 by 1 MPI processor grid
  reading atoms ...
  16816 atoms
  scanning bonds ...
  1 = max bonds/atom
  scanning angles ...
  6 = max angles/atom
  scanning dihedrals ...
  9 = max dihedrals/atom
  reading bonds ...
  15360 bonds
  reading angles ...
  28160 angles
  reading dihedrals ...
  30720 dihedrals
Finding 1-2 1-3 1-4 neighbors ...
  special bond factors lj:   0          0          0.5       
  special bond factors coul: 0          0          0.5       
  4 = max # of 1-2 neighbors
  6 = max # of 1-3 neighbors
  12 = max # of 1-4 neighbors
  14 = max # of special neighbors
1200 atoms in group gold
256 atoms in group thiol
15616 atoms in group dynamic
Ewald initialization ...
WARNING: Using 12-bit tables for long-range coulomb (../kspace.cpp:321)
  G vector (1/distance) = 0.143832
  estimated absolute RMS force accuracy = 0.040371
  estimated relative force accuracy = 0.000121576
  KSpace vectors: actual max1d max3d = 769 8 2456
                  kxmax kymax kzmax  = 7 6 8
Neighbor list info ...
  update every 1 steps, delay 0 steps, check yes
  max neighbors/atom: 30000, page size: 300000
  master list distance cutoff = 22
  ghost atom cutoff = 22
  binsize = 11, bins = 8 7 10
  3 neighbor lists, perpetual/occasional/extra = 3 0 0
  (1) pair lj/cut/coul/long, perpetual, skip from (3)
      attributes: half, newton on
      pair build: skip
      stencil: none
      bin: none
  (2) pair morse, perpetual, skip from (3)
      attributes: half, newton on
      pair build: skip
      stencil: none
      bin: none
  (3) neighbor class addition, perpetual
      attributes: half, newton on
      pair build: half/bin/newton
      stencil: half/bin/3d/newton
      bin: standard
Setting up cg style minimization ...
  Unit style    : real
Per MPI rank memory allocation (min/avg/max) = 45.66 | 47.57 | 47.95 Mbytes
Step Temp Press KinEng PotEng TotEng Density 
       0            0   -2595.0681            0   -4631.6731   -4631.6731   0.97513831 
     100            0   -1450.8922            0   -9634.7473   -9634.7473   0.97513831 
Loop time of 6.71411 on 12 procs for 100 steps with 16816 atoms

98.2% CPU use with 12 MPI tasks x 1 OpenMP threads

Minimization stats:
  Stopping criterion = max iterations
  Energy initial, next-to-last, final = 
        -4631.67309849      -9626.7284935     -9634.74728832
  Force two-norm initial, final = 927.767 104.444
  Force max component initial, final = 29.8895 4.92149
  Final line search alpha, max atom move = 0.00442342 0.0217698
  Iterations, force evaluations = 100 197

MPI task timing breakdown:
Section |  min time  |  avg time  |  max time  |%varavg| %total
---------------------------------------------------------------
Pair    | 4.4363     | 4.6776     | 5.0967     |   8.1 | 69.67
Bond    | 0.16173    | 0.16828    | 0.17463    |   1.1 |  2.51
Kspace  | 1.2327     | 1.6456     | 1.8807     |  13.0 | 24.51
Neigh   | 0          | 0          | 0          |   0.0 |  0.00
Comm    | 0.13773    | 0.17518    | 0.19996    |   4.4 |  2.61
Output  | 5.1975e-05 | 5.8393e-05 | 0.00012803 |   0.0 |  0.00
Modify  | 0.00051141 | 0.00062521 | 0.00073242 |   0.0 |  0.01
Other   |            | 0.04675    |            |       |  0.70

Nlocal:    1401.33 ave 1440 max 1374 min
Histogram: 3 2 2 0 1 0 0 0 3 1
Nghost:    11261.9 ave 11325 max 11216 min
Histogram: 2 1 2 0 2 2 1 1 0 1
Neighs:    2.19758e+06 ave 2.25198e+06 max 2.15239e+06 min
Histogram: 2 0 3 0 2 1 2 0 1 1

Total # of neighbors = 26370927
Ave neighs/atom = 1568.2
Ave special neighs/atom = 8.82969
Neighbor list builds = 0
Dangerous builds = 0
Ewald initialization ...
WARNING: Using 12-bit tables for long-range coulomb (../kspace.cpp:321)
  G vector (1/distance) = 0.143832
  estimated absolute RMS force accuracy = 0.040371
  estimated relative force accuracy = 0.000121576
  KSpace vectors: actual max1d max3d = 769 8 2456
                  kxmax kymax kzmax  = 7 6 8
Setting up Verlet run ...
  Unit style    : real
  Current step  : 100
  Time step     : 1
Per MPI rank memory allocation (min/avg/max) = 44.55 | 46.46 | 46.84 Mbytes
Step Temp Press KinEng PotEng TotEng Density 
     100            0   -1450.8922            0   -9634.7473   -9634.7473   0.97513831 
     200   0.85858914   -1468.4078    43.034481   -9740.5767   -9697.5422   0.97513831 
     300   0.95708497   -1569.5965     47.97132   -9796.2242   -9748.2528   0.97513831 
     400    1.0631402   -1597.4205    53.287053   -9843.0697   -9789.7826   0.97513831 
     500    1.1963701    -1594.693    59.964846   -9872.2105   -9812.2457   0.97513831 
     600    1.4197369   -1583.3564    71.160507   -9895.2607   -9824.1002   0.97513831 
     700    1.6592056     -1568.48    83.163238    -9913.593   -9830.4298   0.97513831 
     800    1.9329291   -1558.5803    96.882893   -9926.1973   -9829.3145   0.97513831 
     900    2.2037486   -1572.1512      110.457   -9939.2679   -9828.8109   0.97513831 
    1000    2.4756037   -1569.0211      124.083   -9956.9158   -9832.8328   0.97513831 
    1100    2.7615139   -1543.7982    138.41348   -9971.0769   -9832.6635   0.97513831 
    1200    3.0837561   -1522.3732    154.56501   -9991.5603   -9836.9953   0.97513831 
    1300    3.3702266    -1502.849    168.92358   -10009.657   -9840.7335   0.97513831 
    1400    3.6119904   -1503.7404    181.04134   -10027.971   -9846.9297   0.97513831 
    1500    3.9406904   -1494.3838    197.51655   -10046.753   -9849.2365   0.97513831 
    1600    4.1765357   -1477.9224    209.33766   -10061.714   -9852.3768   0.97513831 
    1700    4.4956982   -1471.9727    225.33483   -10087.842   -9862.5068   0.97513831 
    1800    4.7315002   -1432.8152    237.15377   -10106.424   -9869.2698   0.97513831 
    1900    5.0322874   -1411.9019    252.22993   -10125.034   -9872.8039   0.97513831 
    2000    5.3088853   -1425.0732    266.09366    -10146.68   -9880.5867   0.97513831 
    2100    5.5545061   -1406.7848    278.40474   -10159.932   -9881.5275   0.97513831 
    2200     5.857225    -1397.515    293.57771   -10177.019   -9883.4413   0.97513831 
    2300    6.1916314   -1396.6816    310.33894   -10199.622   -9889.2833   0.97513831 
    2400    6.3230614   -1380.4484    316.92652   -10217.089   -9900.1625   0.97513831 
    2500    6.5963017   -1359.2226    330.62195   -10229.236   -9898.6141   0.97513831 
    2600    6.8616361   -1395.5108    343.92113    -10243.55   -9899.6289   0.97513831 
    2700    7.1048027    -1367.165     356.1092     -10257.7   -9901.5906   0.97513831 
    2800    7.3909931   -1306.4357    370.45373   -10269.434   -9898.9798   0.97513831 
    2900    7.5865923   -1301.5741    380.25762   -10276.099   -9895.8414   0.97513831 
    3000    7.9059061   -1334.2791    396.26236   -10282.846   -9886.5834   0.97513831 
    3100    8.1464095   -1343.4733    408.31695   -10292.948   -9884.6306   0.97513831 
    3200    8.3382248   -1277.7951    417.93118   -10303.582   -9885.6512   0.97513831 
    3300    8.6886224   -1236.8919    435.49392   -10318.771   -9883.2775   0.97513831 
    3400    8.8355775   -1251.4337    442.85965   -10324.468   -9881.6087   0.97513831 
    3500    8.9734337   -1292.7795    449.76932   -10335.323   -9885.5535   0.97513831 
    3600    9.2347739   -1291.5564     462.8683   -10353.168   -9890.2998   0.97513831 
    3700    9.3732549   -1303.5407    469.80929   -10355.589   -9885.7793   0.97513831 
    3800    9.7181174   -1273.3827     487.0946   -10372.672   -9885.5774   0.97513831 
    3900    9.9052038   -1234.2373    496.47181   -10380.619   -9884.1471   0.97513831 
    4000    10.074336   -1226.1426    504.94909   -10374.867   -9869.9178   0.97513831 
    4100    10.276983   -1263.0572    515.10624   -10382.463   -9867.3566   0.97513831 
    4200     10.54906   -1274.6316    528.74338   -10386.989   -9858.2456   0.97513831 
    4300    10.599784   -1196.6138    531.28578   -10392.868   -9861.5822   0.97513831 
    4400    10.887684   -1223.7976    545.71598   -10408.979   -9863.2633   0.97513831 
    4500    10.967864   -1203.6202    549.73479    -10414.68   -9864.9452   0.97513831 
    4600    11.229296   -1181.4171    562.83837   -10421.245    -9858.407   0.97513831 
    4700    11.279421   -1175.5497    565.35074   -10427.525   -9862.1739   0.97513831 
    4800    11.466051   -1219.2838    574.70511   -10427.856   -9853.1509   0.97513831 
    4900    11.736194   -1190.2071    588.24528   -10427.312   -9839.0665   0.97513831 
    5000    11.823107   -1201.1329    592.60159   -10422.692     -9830.09   0.97513831 
    5100    12.081147   -1191.1854    605.53513   -10445.161   -9839.6263   0.97513831 
    5200    12.146771   -1218.4065    608.82434   -10443.229   -9834.4049   0.97513831 
    5300    12.373242   -1197.4553    620.17558   -10438.582   -9818.4068   0.97513831 
    5400    12.473826   -1228.8293     625.2171   -10451.864   -9826.6469   0.97513831 
    5500    12.616352   -1201.1212    632.36083   -10454.975   -9822.6139   0.97513831 
    5600     12.71971   -1172.8122    637.54137   -10461.143   -9823.6016   0.97513831 
    5700    12.820187   -1201.6799    642.57753   -10469.782   -9827.2045   0.97513831 
    5800    12.936836   -1152.8162    648.42426   -10464.209   -9815.7844   0.97513831 
    5900    13.211462   -1148.7287    662.18916   -10465.636   -9803.4465   0.97513831 
    6000    13.288241   -1156.7598     666.0375   -10476.433   -9810.3956   0.97513831 
    6100    13.476173   -1167.7668    675.45708   -10477.693   -9802.2363   0.97513831 
    6200    13.564508   -1155.1709    679.88465   -10474.757   -9794.8726   0.97513831 
    6300    13.799343   -1134.8876     691.6551   -10489.474   -9797.8189   0.97513831 
    6400     13.79049   -1123.6044    691.21137   -10489.866   -9798.6547   0.97513831 
    6500     13.98262   -1148.8034    700.84138   -10488.779   -9787.9381   0.97513831 
    6600     14.26016   -1162.2509    714.75233   -10496.874   -9782.1214   0.97513831 
    6700    14.158011    -1147.755    709.63237   -10495.574   -9785.9412   0.97513831 
    6800    14.189037   -1099.9467    711.18745   -10493.455   -9782.2679   0.97513831 
    6900    14.575431    -1087.547    730.55443    -10495.54   -9764.9854   0.97513831 
    7000    14.533611   -1072.8185    728.45834   -10494.406   -9765.9474   0.97513831 
    7100    14.651645   -1124.7022    734.37444   -10493.095   -9758.7207   0.97513831 
    7200    14.861975   -1077.9198     744.9167   -10501.082   -9756.1656   0.97513831 
    7300    14.759248   -1085.0064    739.76775   -10491.709   -9751.9417   0.97513831 
    7400    15.136812   -1102.2178    758.69216   -10501.507   -9742.8152   0.97513831 
    7500     15.14863   -1115.6391     759.2845   -10491.337   -9732.0529   0.97513831 
    7600     15.25339   -1066.7484    764.53529   -10508.906   -9744.3704   0.97513831 
    7700    15.383385   -1088.7661    771.05097   -10503.063    -9732.012   0.97513831 
    7800     15.64189   -1089.4142    784.00782   -10506.475    -9722.467   0.97513831 
    7900    15.572103   -1050.9068    780.50994   -10505.819   -9725.3088   0.97513831 
    8000    16.061292   -1097.0414    805.02922   -10504.625   -9699.5958   0.97513831 
    8100    15.780168   -1094.4739    790.93864   -10502.415    -9711.476   0.97513831 
    8200    15.941163   -1092.6171    799.00808   -10502.037    -9703.029   0.97513831 
    8300    16.091169   -1093.6679    806.52675   -10501.422   -9694.8957   0.97513831 
    8400     16.19664   -1040.5282    811.81317   -10503.978   -9692.1649   0.97513831 
    8500    16.384261   -1073.3847     821.2172   -10502.732   -9681.5149   0.97513831 
    8600    16.326293   -1098.0932    818.31171   -10503.798   -9685.4859   0.97513831 
    8700    16.468202   -1048.8025    825.42449   -10503.683   -9678.2585   0.97513831 
    8800    16.595519   -1078.0404    831.80595   -10493.553   -9661.7473   0.97513831 
    8900    16.678478   -1081.7896    835.96401    -10516.12   -9680.1555   0.97513831 
    9000    16.878228   -1057.9506    845.97595   -10502.531   -9656.5552   0.97513831 
    9100    16.955319   -1054.5082    849.83996   -10507.704   -9657.8643   0.97513831 
    9200    16.974133   -1024.5328    850.78292   -10515.176   -9664.3929   0.97513831 
    9300    17.128146    -1059.529    858.50242   -10505.314   -9646.8119   0.97513831 
    9400    17.242245   -1089.0224    864.22135   -10505.919   -9641.6972   0.97513831 
    9500    17.441057   -1073.5098    874.18624    -10510.39   -9636.2036   0.97513831 
    9600    17.423025   -1043.6219    873.28247   -10510.284   -9637.0018   0.97513831 
    9700    17.725472   -1012.2663    888.44182   -10510.016   -9621.5744   0.97513831 
    9800    17.706797   -1068.1315    887.50578   -10511.596   -9624.0903   0.97513831 
    9900    17.598069    -1010.956    882.05606   -10521.789   -9639.7331   0.97513831 
   10000    17.829422   -983.21393    893.65199    -10508.93   -9615.2782   0.97513831 
   10100    17.940706   -1033.8361    899.22983   -10521.281   -9622.0513   0.97513831 
   10200    18.010633    -1045.201    902.73475   -10514.807   -9612.0726   0.97513831 
   10300    18.167073   -1060.1957    910.57585   -10529.679   -9619.1027   0.97513831 
   10400    18.057365   -1046.7332    905.07704   -10517.408    -9612.331   0.97513831 
   10500    18.168033   -1040.3008    910.62397   -10520.587   -9609.9627   0.97513831 
   10600    18.228957   -963.87683    913.67761    -10524.38   -9610.7021   0.97513831 
   10700    18.363244   -1056.7213    920.40839   -10513.094   -9592.6857   0.97513831 
   10800    18.555787   -1030.8635    930.05913   -10505.906   -9575.8472   0.97513831 
   10900    18.713336   -1064.4344    937.95582   -10514.719   -9576.7629   0.97513831 
   11000    18.723495   -1062.6333    938.46505   -10513.595   -9575.1302   0.97513831 
   11100    18.665933   -1037.6659     935.5799   -10512.255   -9576.6754   0.97513831 
   11200    18.827179    -1054.024     943.6619    -10519.19   -9575.5279   0.97513831 
   11300    19.152032   -1019.9302    959.94431   -10516.428   -9556.4838   0.97513831 
   11400    19.128461   -1002.0128    958.76286   -10505.304   -9546.5407   0.97513831 
   11500    18.953387   -923.62113    949.98774   -10502.501   -9552.5129   0.97513831 
   11600     19.40719   -930.25297    972.73343   -10505.882   -9533.1487   0.97513831 
   11700    19.340181     -1018.84    969.37474   -10514.529   -9545.1539   0.97513831 
   11800     19.34218   -1014.2453    969.47497   -10517.121    -9547.646   0.97513831 
   11900    19.558692   -983.86619    980.32704   -10517.686   -9537.3586   0.97513831 
   12000    19.689148   -1034.4744     986.8658   -10503.116   -9516.2506   0.97513831 
   12100    19.877388   -974.44937    996.30081   -10508.107   -9511.8058   0.97513831 
   12200    19.603316   -972.81568    982.56368   -10511.189   -9528.6253   0.97513831 
   12300    19.985487   -1002.8197     1001.719   -10505.034   -9503.3151   0.97513831 
   12400    19.644704   -1031.7942    984.63817    -10503.52   -9518.8814   0.97513831 
   12500    19.961402   -1023.1972    1000.5118   -10509.656   -9509.1443   0.97513831 
   12600     19.83551   -1038.3204    994.20182   -10494.505   -9500.3028   0.97513831 
   12700    20.238369   -1055.2989    1014.3941   -10498.532   -9484.1378   0.97513831 
   12800    20.251657    -1022.106      1015.06   -10495.963   -9480.9026   0.97513831 
   12900    20.334755   -942.63031    1019.2251   -10512.515   -9493.2903   0.97513831 
   13000    20.371705   -957.98733    1021.0771   -10508.529   -9487.4524   0.97513831 
   13100    20.313613   -988.61936    1018.1654   -10503.834   -9485.6684   0.97513831 
   13200    20.510867   -980.22345    1028.0522   -10492.482     -9464.43   0.97513831 
   13300     20.47264    -1055.961    1026.1362   -10504.891   -9478.7551   0.97513831 
   13400    20.734147   -963.33094    1039.2436   -10494.728   -9455.4844   0.97513831 
   13500    20.986497    -1012.096    1051.8919   -10510.532   -9458.6397   0.97513831 
   13600    20.572586   -1013.9625    1031.1457   -10495.694   -9464.5478   0.97513831 
   13700    20.875528   -934.73444    1046.3299   -10492.429   -9446.0995   0.97513831 
   13800    21.066569   -952.83154    1055.9053   -10500.927   -9445.0214   0.97513831 
   13900    21.330628   -1014.2027    1069.1406   -10510.385   -9441.2443   0.97513831 
   14000    21.145661   -986.46209    1059.8696   -10508.171   -9448.3011   0.97513831 
   14100    21.345647   -961.05368    1069.8933   -10500.019   -9430.1259   0.97513831 
   14200    21.549865   -999.44691    1080.1292   -10506.406   -9426.2771   0.97513831 
   14300    21.259226   -978.07627    1065.5618   -10501.029   -9435.4671   0.97513831 
   14400    21.478408   -1008.1554    1076.5477   -10498.989   -9422.4409   0.97513831 
   14500    21.456779   -1056.5843    1075.4636   -10504.186   -9428.7224   0.97513831 
   14600    21.412189   -980.97666    1073.2286   -10494.565   -9421.3367   0.97513831 
   14700    21.627684   -1015.4363    1084.0297   -10502.568   -9418.5384   0.97513831 
   14800    21.831731   -998.75036     1094.257   -10500.464   -9406.2065   0.97513831 
   14900    21.828562   -1013.3136    1094.0982   -10497.925   -9403.8264   0.97513831 
   15000    21.891635   -1046.5394    1097.2596   -10509.104   -9411.8442   0.97513831 
   15100    22.018885   -1035.5792    1103.6376   -10505.019    -9401.381   0.97513831 
   15200    22.249336   -1026.1136    1115.1884   -10497.549    -9382.361   0.97513831 
   15300    22.281671   -1044.9279    1116.8091   -10520.491   -9403.6816   0.97513831 
   15400    21.911061   -997.00162    1098.2332   -10503.641   -9405.4076   0.97513831 
   15500    22.149564   -1060.1586    1110.1875    -10490.27   -9380.0825   0.97513831 
   15600    22.728824    -996.4498    1139.2214   -10504.231   -9365.0092   0.97513831 
   15700    22.344895   -1039.3169     1119.978    -10509.07   -9389.0923   0.97513831 
   15800    22.568574   -1034.4243    1131.1893   -10512.946   -9381.7569   0.97513831 
   15900    22.526333   -1047.3573    1129.0721   -10496.854   -9367.7817   0.97513831 
   16000    22.500866   -1033.3398    1127.7956   -10496.491   -9368.6954   0.97513831 
   16100    22.666443   -999.74023    1136.0947   -10509.256   -9373.1617   0.97513831 
   16200     22.68078   -1006.8992    1136.8133   -10501.827   -9365.0136   0.97513831 
   16300    22.915513   -1024.7849    1148.5787   -10501.096   -9352.5169   0.97513831 
   16400    22.807945   -1040.3777    1143.1871   -10499.736   -9356.5487   0.97513831 
   16500    23.035258   -1036.7695    1154.5806   -10500.114   -9345.5339   0.97513831 
   16600    23.264516   -1066.7994    1166.0716   -10490.504    -9324.432   0.97513831 
   16700     23.04327   -1036.5865    1154.9822   -10484.103   -9329.1211   0.97513831 
   16800    22.956022   -1007.5618    1150.6091    -10500.28   -9349.6714   0.97513831 
   16900    22.906773   -1001.6955    1148.1407   -10490.412   -9342.2711   0.97513831 
   17000    23.272626   -990.00516     1166.478   -10499.675   -9333.1972   0.97513831 
   17100     23.27487   -1037.5641    1166.5905    -10492.55     -9325.96   0.97513831 
   17200    23.270472   -1067.4156    1166.3701   -10478.037   -9311.6673   0.97513831 
   17300    23.553265   -1050.2357    1180.5443   -10492.809   -9312.2643   0.97513831 
   17400    23.366495   -1019.6176    1171.1829   -10501.326   -9330.1428   0.97513831 
   17500    23.930551   -961.57707    1199.4548   -10492.875   -9293.4206   0.97513831 
   17600    23.454506   -1010.9583    1175.5943    -10478.77   -9303.1759   0.97513831 
   17700    23.672724   -1050.6955    1186.5318   -10500.586   -9314.0544   0.97513831 
   17800     23.76768   -1070.7204    1191.2913   -10483.444   -9292.1522   0.97513831 
   17900    23.742065   -1007.7721    1190.0074   -10478.528   -9288.5204   0.97513831 
   18000     23.90668   -1020.7333    1198.2583   -10486.274   -9288.0159   0.97513831 
   18100    24.420459   -992.99478    1224.0101   -10493.816   -9269.8054   0.97513831 
   18200    24.046077   -1034.7726    1205.2452   -10469.806   -9264.5611   0.97513831 
   18300     23.89769   -1044.9752    1197.8077   -10480.998   -9283.1901   0.97513831 
   18400    23.914222   -1014.3982    1198.6363   -10483.971   -9285.3345   0.97513831 
   18500    23.991298   -1035.2902    1202.4995   -10487.301   -9284.8015   0.97513831 
   18600    24.123135   -1033.3623    1209.1075   -10470.703   -9261.5954   0.97513831 
   18700    24.507112   -1016.9416    1228.3533   -10485.822   -9257.4691   0.97513831 
   18800    24.563418   -956.67337    1231.1755   -10477.924   -9246.7484   0.97513831 
   18900     24.71026   -880.88476    1238.5356   -10493.829   -9255.2932   0.97513831 
   19000    24.540288   -986.83424    1230.0162   -10476.195   -9246.1789   0.97513831 
   19100    25.047727   -1045.0609    1255.4502   -10485.689    -9230.239   0.97513831 
   19200     24.64683   -1051.8346    1235.3563    -10488.92   -9253.5638   0.97513831 
   19300     24.85168   -962.18341    1245.6239   -10476.087   -9230.4627   0.97513831 
   19400    24.837871    -1011.966    1244.9317    -10470.63   -9225.6984   0.97513831 
   19500    24.969196   -1062.2139     1251.514   -10481.349   -9229.8349   0.97513831 
   19600    25.139118   -1052.8345    1260.0309   -10486.807   -9226.7756   0.97513831 
   19700    25.277811   -1103.0937    1266.9826   -10493.092   -9226.1098   0.97513831 
   19800    24.812904   -1079.1586    1243.6804     -10492.2   -9248.5199   0.97513831 
   19900    25.014078   -1043.6405    1253.7636   -10492.693    -9238.929   0.97513831 
   20000    24.855935    -1014.817    1245.8372   -10502.369   -9256.5316   0.97513831 
   20100    24.900267   -1008.7952    1248.0592   -10497.306   -9249.2463   0.97513831 
   20200    25.537356   -1008.2406    1279.9915   -10498.253   -9218.2617   0.97513831 
   20300    25.182568   -1044.7364    1262.2087   -10494.278   -9232.0688   0.97513831 
   20400    25.365251   -939.49562    1271.3653   -10494.189   -9222.8241   0.97513831 
   20500    25.584065   -950.94568    1282.3327   -10498.228   -9215.8954   0.97513831 
   20600    25.468985   -1041.9847    1276.5646   -10485.237   -9208.6726   0.97513831 
   20700    25.492755   -1054.0914     1277.756   -10488.266   -9210.5097   0.97513831 
   20800     25.71511    -1028.044     1288.901   -10483.884   -9194.9829   0.97513831 
   20900    25.695567   -989.73805    1287.9215   -10486.905   -9198.9837   0.97513831 
   21000    25.623866   -1021.6097    1284.3276   -10478.006   -9193.6788   0.97513831 
   21100    25.841647   -1035.2062    1295.2433   -10481.403   -9186.1593   0.97513831 
   21200    25.922675   -1028.4859    1299.3046   -10493.744   -9194.4398   0.97513831 
   21300    25.950486   -962.02952    1300.6986   -10480.416   -9179.7177   0.97513831 
   21400    26.041464   -998.94523    1305.2586    -10481.79   -9176.5313   0.97513831 
   21500    26.230936   -1003.3314    1314.7554   -10477.171   -9162.4152   0.97513831 
   21600    26.071163   -1060.0163    1306.7472   -10493.992   -9187.2448   0.97513831 
   21700    26.335443   -997.17611    1319.9935   -10515.432   -9195.4384   0.97513831 
   21800    26.278223    -997.9929    1317.1255   -10505.953   -9188.8272   0.97513831 
   21900    26.305935   -1050.0532    1318.5145   -10484.646   -9166.1316   0.97513831 
   22000    26.008112   -1085.7917    1303.5869   -10494.604   -9191.0171   0.97513831 
   22100    26.293982    -989.9407    1317.9154   -10491.082   -9173.1662   0.97513831 
   22200     26.45715   -978.33392    1326.0938   -10477.968   -9151.8745   0.97513831 
   22300    26.570303   -1035.4321    1331.7653   -10496.918   -9165.1524   0.97513831 
   22400     26.64597   -993.08776    1335.5579   -10504.112    -9168.554   0.97513831 
   22500    26.643128   -986.96377    1335.4154   -10484.868   -9149.4529   0.97513831 
   22600    26.759369    -962.2121    1341.2417   -10478.373   -9137.1309   0.97513831 
   22700    26.840617   -1010.6641     1345.314   -10495.658   -9150.3443   0.97513831 
   22800    26.780666   -1003.0054    1342.3091   -10476.067   -9133.7579   0.97513831 
   22900    27.009259   -990.37598    1353.7667   -10498.021   -9144.2538   0.97513831 
   23000    26.963887   -986.69967    1351.4926    -10475.86   -9124.3674   0.97513831 
   23100    27.081383   -968.85236    1357.3818   -10486.588   -9129.2062   0.97513831 
   23200    27.008893   -945.84599    1353.7484   -10508.692   -9154.9435   0.97513831 
   23300    27.190741   -992.19539     1362.863   -10487.651   -9124.7879   0.97513831 
   23400    27.412959   -965.71039    1374.0011   -10488.691   -9114.6901   0.97513831 
   23500    27.182995   -976.83526    1362.4748    -10501.55    -9139.075   0.97513831 
   23600    27.493633   -1002.9295    1378.0447   -10500.873    -9122.828   0.97513831 
   23700    27.052659   -1092.1812    1355.9421   -10470.207   -9114.2651   0.97513831 
   23800    27.818282   -1043.3498    1394.3168   -10478.475   -9084.1582   0.97513831 
   23900     27.74008   -991.34559    1390.3972   -10482.088   -9091.6908   0.97513831 
   24000    27.550847   -1084.5036    1380.9124   -10472.726   -9091.8137   0.97513831 
   24100    27.474965   -1078.0903     1377.109    -10490.25   -9113.1408   0.97513831 
   24200    27.659897   -1065.0927    1386.3783   -10471.734   -9085.3558   0.97513831 
   24300    27.640359   -917.74802    1385.3989   -10486.558   -9101.1596   0.97513831 
   24400    27.634335   -1014.0948     1385.097   -10501.776   -9116.6787   0.97513831 
   24500    27.647761    -1010.098    1385.7699   -10486.059   -9100.2891   0.97513831 
   24600    28.493437   -1023.7846    1428.1572   -10483.364   -9055.2065   0.97513831 
   24700    28.113231   -1061.3488    1409.1004   -10460.109   -9051.0083   0.97513831 
   24800    28.076771    -1069.942    1407.2729   -10479.646   -9072.3736   0.97513831 
   24900    28.071689   -1007.0425    1407.0182   -10473.084   -9066.0659   0.97513831 
   25000    28.221181   -983.81316    1414.5111   -10467.751   -9053.2395   0.97513831 
   25100    28.392035   -1019.7718    1423.0747   -10483.619   -9060.5446   0.97513831 
   25200    28.392928   -1013.5376    1423.1194    -10472.77   -9049.6503   0.97513831 
   25300    28.240164   -1033.7766    1415.4625   -10455.301   -9039.8386   0.97513831 
   25400    28.395766   -1022.9171    1423.2617   -10467.001    -9043.739   0.97513831 
   25500    28.157719   -1010.3347    1411.3302   -10475.037   -9063.7072   0.97513831 
   25600    28.319099   -1031.9223     1419.419   -10480.836   -9061.4168   0.97513831 
   25700    28.696442   -999.80398    1438.3323   -10476.469   -9038.1368   0.97513831 
   25800     28.58481   -1023.6044     1432.737   -10484.057   -9051.3196   0.97513831 
   25900    28.425011   -1010.2861    1424.7275    -10461.11    -9036.382   0.97513831 
   26000     28.57605   -964.36189     1432.298   -10484.578   -9052.2803   0.97513831 
   26100    28.924785   -1000.7697    1449.7774    -10469.41   -9019.6328   0.97513831 
   26200    28.514974   -1042.4877    1429.2367   -10477.948    -9048.711   0.97513831 
   26300    28.331455   -1012.2547    1420.0383   -10453.676   -9033.6375   0.97513831 
   26400     28.66797   -1074.5471    1436.9052   -10464.603   -9027.6981   0.97513831 
   26500    29.134195   -1088.2106    1460.2735   -10484.484   -9024.2107   0.97513831 
   26600    29.188226   -1104.6473    1462.9817   -10480.516   -9017.5339   0.97513831 
   26700    28.725342   -1071.1949    1439.7808   -10479.589   -9039.8082   0.97513831 
   26800    28.645595   -1029.8456    1435.7837   -10470.047   -9034.2635   0.97513831 
   26900    28.923261   -1046.7661     1449.701   -10482.447   -9032.7458   0.97513831 
   27000    29.301559   -979.71663    1468.6622   -10479.832   -9011.1695   0.97513831 
   27100    29.108851   -1031.4878    1459.0032   -10469.845   -9010.8418   0.97513831 
   27200    29.308214   -1112.4184    1468.9957   -10456.819   -8987.8234   0.97513831 
   27300     29.53298   -1037.1419    1480.2615   -10464.922   -8984.6601   0.97513831 
   27400    29.295553   -1030.9065    1468.3611   -10474.736   -9006.3746   0.97513831 
   27500    29.316761   -1030.5432    1469.4241   -10481.644   -9012.2199   0.97513831 
   27600    29.365101   -1087.3063     1471.847   -10466.616   -8994.7695   0.97513831 
   27700    29.660425   -1077.1052    1486.6494   -10484.082   -8997.4328   0.97513831 
   27800    29.648929    -1051.281    1486.0731   -10470.655   -8984.5816   0.97513831 
   27900    30.090957   -1073.0074    1508.2286   -10470.569   -8962.3405   0.97513831 
   28000    29.587437   -1014.7931     1482.991   -10460.782   -8977.7911   0.97513831 
   28100    29.506064   -997.64479    1478.9124   -10466.883   -8987.9709   0.97513831 
   28200    29.754041   -1002.7852    1491.3416   -10467.298   -8975.9569   0.97513831 
   28300    29.847781   -1017.4575    1496.0401   -10462.208   -8966.1678   0.97513831 
   28400    29.704543   -1054.2436    1488.8606   -10465.228    -8976.367   0.97513831 
   28500    29.880358   -1051.3347    1497.6729   -10467.068   -8969.3948   0.97513831 
   28600    29.894036   -1040.1858    1498.3585   -10458.255   -8959.8963   0.97513831 
   28700    30.152812   -982.78789    1511.3289   -10451.132   -8939.8035   0.97513831 
   28800      29.7488   -1072.3404    1491.0789   -10454.955   -8963.8758   0.97513831 
   28900    29.838568   -997.76022    1495.5783   -10474.781   -8979.2029   0.97513831 
   29000    29.931679   -998.33875    1500.2452   -10452.062   -8951.8166   0.97513831 
   29100     30.05977   -1074.2859    1506.6654   -10458.048   -8951.3821   0.97513831 
   29200    30.449764   -1061.8298    1526.2128   -10449.203   -8922.9899   0.97513831 
   29300    30.215558   -1050.3362    1514.4739     -10443.2    -8928.726   0.97513831 
   29400    30.526251   -987.45508    1530.0465   -10453.894   -8923.8473   0.97513831 
   29500    30.292924   -1020.3469    1518.3516   -10460.951    -8942.599   0.97513831 
   29600    30.410483   -1028.3155     1524.244   -10471.115   -8946.8714   0.97513831 
   29700    30.309625    -1035.719    1519.1887   -10462.026   -8942.8374   0.97513831 
   29800    30.901947   -1061.9799    1548.8773   -10453.335   -8904.4578   0.97513831 
   29900    30.439133   -1066.9782      1525.68   -10416.548   -8890.8684   0.97513831 
   30000    30.530329   -1041.6437     1530.251   -10459.292   -8929.0411   0.97513831 
   30100    30.442649    -1000.948    1525.8562   -10450.515   -8924.6583   0.97513831 
   30200    30.970384   -1046.9538    1552.3076   -10458.638   -8906.3309   0.97513831 
   30300     31.06344   -1035.2371    1556.9717   -10434.355   -8877.3833   0.97513831 
   30400    30.946445   -1140.5336    1551.1076   -10437.875   -8886.7678   0.97513831 
   30500    31.001638    -1063.096    1553.8741   -10444.366   -8890.4915   0.97513831 
   30600    31.054239   -1118.1047    1556.5105   -10435.295   -8878.7848   0.97513831 
   30700    31.201823   -1123.7231    1563.9078   -10423.365   -8859.4575   0.97513831 
   30800    31.420139   -1087.9456    1574.8503   -10448.233   -8873.3823   0.97513831 
   30900    31.066724   -1094.4376    1557.1363   -10431.627   -8874.4907   0.97513831 
   31000    30.993473   -1118.0761    1553.4648   -10434.831   -8881.3667   0.97513831 
   31100    31.247482   -998.23793    1566.1963   -10418.579   -8852.3828   0.97513831 
   31200     31.42682   -954.30627    1575.1852   -10416.662   -8841.4767   0.97513831 
   31300    31.270011   -1049.8079    1567.3255   -10453.704   -8886.3782   0.97513831 
   31400    31.031138   -1047.6629    1555.3526   -10433.137   -8877.7848   0.97513831 
   31500    31.871717   -1065.5169    1597.4844    -10455.99   -8858.5058   0.97513831 
   31600    31.269072   -1086.0076    1567.2785   -10440.624   -8873.3458   0.97513831 
   31700    31.535849   -1084.1922      1580.65   -10434.242   -8853.5919   0.97513831 
   31800    31.628752   -948.62561    1585.3064   -10444.581    -8859.275   0.97513831 
   31900    31.631602   -1065.4388    1585.4493   -10442.396   -8856.9468   0.97513831 
   32000    31.458963   -1063.3269    1576.7962   -10476.883   -8900.0869   0.97513831 
   32100    31.947681   -1033.8349    1601.2919   -10452.472     -8851.18   0.97513831 
   32200    31.841795   -1065.9484    1595.9847   -10440.806   -8844.8209   0.97513831 
   32300    31.547952   -1060.7886    1581.2566   -10441.791    -8860.534   0.97513831 
   32400    32.018221   -1152.2589    1604.8276   -10427.898   -8823.0705   0.97513831 
   32500    32.016219   -1104.4942    1604.7272   -10422.009   -8817.2822   0.97513831 
   32600    32.126653    -1049.243    1610.2624   -10440.337   -8830.0744   0.97513831 
   32700    32.336309   -1019.8032    1620.7709   -10424.803   -8804.0319   0.97513831 
   32800    31.985235   -1030.0739    1603.1742   -10449.235   -8846.0607   0.97513831 
   32900    31.845614   -1029.2882    1596.1761   -10455.526   -8859.3498   0.97513831 
   33000    32.271805   -1046.8671    1617.5378   -10416.996   -8799.4579   0.97513831 
   33100    32.227278   -992.71412     1615.306   -10433.982   -8818.6763   0.97513831 
   33200    32.370868   -1022.4408     1622.503   -10423.132   -8800.6292   0.97513831 
   33300    32.690927   -1078.5905    1638.5451    -10433.87   -8795.3248   0.97513831 
   33400    32.263272   -1037.9693    1617.1101   -10431.139   -8814.0288   0.97513831 
   33500    32.347517   -1042.4275    1621.3326   -10435.426   -8814.0932   0.97513831 
   33600    32.398231   -1009.7832    1623.8745   -10423.315   -8799.4407   0.97513831 
   33700    32.187538   -1012.1076    1613.3141   -10432.964   -8819.6503   0.97513831 
   33800    32.322725    -1014.597      1620.09   -10449.994   -8829.9036   0.97513831 
   33900    32.395636   -1064.4455    1623.7444   -10426.808   -8803.0631   0.97513831 
   34000    32.094227   -978.38447    1608.6371   -10419.344   -8810.7073   0.97513831 
   34100    32.591377   -1080.1205    1633.5555   -10418.293   -8784.7379   0.97513831 
   34200    32.616282   -1042.8541    1634.8038   -10392.816   -8758.0127   0.97513831 
   34300    32.916416   -967.19259    1649.8472   -10418.161   -8768.3142   0.97513831 
   34400    32.612787   -959.08598    1634.6286   -10419.349     -8784.72   0.97513831 
   34500    33.113029   -1020.2567    1659.7019   -10416.137   -8756.4354   0.97513831 
   34600    32.786282   -1092.4979    1643.3245   -10422.565   -8779.2407   0.97513831 
   34700    32.924075    -981.4253    1650.2311   -10420.738   -8770.5068   0.97513831 
   34800    33.025768   -1030.5833    1655.3281    -10413.89   -8758.5622   0.97513831 
   34900    33.169994   -1021.0672    1662.5571   -10421.887   -8759.3304   0.97513831 
   35000    32.709465   -943.83256    1639.4743    -10404.64   -8765.1653   0.97513831 
   35100    33.044996   -1079.2726    1656.2919   -10415.883   -8759.5912   0.97513831 
   35200    33.440133   -1000.1461    1676.0971   -10412.555   -8736.4577   0.97513831 
   35300    33.311198   -1086.5366    1669.6345   -10422.904   -8753.2695   0.97513831 
   35400    32.760495   -1031.3015    1642.0321   -10414.861   -8772.8291   0.97513831 
   35500    33.373071   -1126.1503    1672.7358   -10415.384   -8742.6484   0.97513831 
   35600    33.739336   -1011.2937    1691.0938   -10423.116   -8732.0221   0.97513831 
   35700    33.336826   -1080.9074    1670.9191   -10417.889   -8746.9697   0.97513831 
   35800    32.986919   -991.79658    1653.3809   -10427.313   -8773.9319   0.97513831 
   35900    33.302323   -978.49138    1669.1897   -10432.626   -8763.4363   0.97513831 
   36000    33.882443   -993.14921    1698.2667   -10413.463   -8715.1959   0.97513831 
   36100    33.849838   -1016.5915    1696.6324   -10405.911   -8709.2789   0.97513831 
   36200    33.297311   -957.79856    1668.9385   -10415.785   -8746.8464   0.97513831 
   36300    33.508988   -1051.3657    1679.5483   -10403.889   -8724.3403   0.97513831 
   36400    33.779293   -1098.1272    1693.0966   -10402.852   -8709.7555   0.97513831 
   36500    34.172523   -1019.0098    1712.8062   -10400.766   -8687.9597   0.97513831 
   36600    33.240584   -1121.0117    1666.0952    -10384.66   -8718.5645   0.97513831 
   36700    33.830534   -1018.2769    1695.6649   -10370.446   -8674.7816   0.97513831 
   36800    34.061471    -1089.298      1707.24   -10412.849   -8705.6087   0.97513831 
   36900    33.900278   -1046.2048    1699.1606   -10390.712   -8691.5509   0.97513831 
   37000    33.710709   -1090.2307     1689.659    -10412.92   -8723.2611   0.97513831 
   37100    34.125016   -1009.4693     1710.425   -10398.451    -8688.026   0.97513831 
   37200    33.833373    -1001.618    1695.8072   -10387.302   -8691.4945   0.97513831 
   37300    34.376418   -917.31471    1723.0259   -10407.227   -8684.2006   0.97513831 
   37400     33.81575   -1031.6624    1694.9239     -10382.6   -8687.6757   0.97513831 
   37500    34.623596   -1076.4925     1735.415   -10396.116   -8660.7009   0.97513831 
   37600    34.465614   -1017.7583    1727.4965   -10398.134   -8670.6374   0.97513831 
   37700    34.200285   -1059.0622    1714.1976   -10392.324   -8678.1266   0.97513831 
   37800    34.476486   -1050.4158    1728.0415   -10399.388   -8671.3468   0.97513831 
   37900    34.481266   -977.64799    1728.2811   -10397.326    -8669.045   0.97513831 
   38000    34.610959   -1077.5715    1734.7816   -10389.333   -8654.5511   0.97513831 
   38100    34.731245   -1015.3447    1740.8106   -10363.446   -8622.6352   0.97513831 
   38200    34.808817   -992.48705    1744.6987   -10376.565   -8631.8661   0.97513831 
   38300    34.807388    -1030.102    1744.6271   -10363.547   -8618.9196   0.97513831 
   38400    34.862469   -965.82374    1747.3879   -10390.974   -8643.5866   0.97513831 
   38500    34.317433   -1022.1242    1720.0694   -10399.877   -8679.8079   0.97513831 
   38600    34.727479   -1073.8895    1740.6219   -10376.511   -8635.8896   0.97513831 
   38700    35.031023    -1012.463    1755.8362   -10375.842   -8620.0063   0.97513831 
   38800    34.775302   -1015.9911    1743.0189   -10361.121   -8618.1024   0.97513831 
   38900    34.728703    -1010.607    1740.6832   -10366.702   -8626.0188   0.97513831 
   39000      34.9099   -1011.4272    1749.7652   -10370.815   -8621.0502   0.97513831 
   39100    35.349797   -1006.9103    1771.8139   -10372.203   -8600.3896   0.97513831 
   39200    35.046362    -991.4321     1756.605    -10385.58   -8628.9751   0.97513831 
   39300    35.161054   -973.06515    1762.3536    -10383.07    -8620.716   0.97513831 
   39400    35.208656    -956.7399    1764.7396    -10388.37   -8623.6308   0.97513831 
   39500    35.257948   -929.63348    1767.2102   -10394.979    -8627.769   0.97513831 
   39600    35.584432   -1018.1595    1783.5743   -10375.198   -8591.6236   0.97513831 
   39700    35.278265   -987.38098    1768.2285    -10383.96   -8615.7313   0.97513831 
   39800    35.340811   -992.24458    1771.3635   -10368.467   -8597.1036   0.97513831 
   39900    35.443651   -1016.6297     1776.518   -10359.994   -8583.4758   0.97513831 
   40000    35.769707   -932.26608    1792.8607   -10350.293   -8557.4326   0.97513831 
   40100    35.624406   -947.20822    1785.5779   -10360.042   -8574.4643   0.97513831 
   40200    35.766928    -926.3565    1792.7215   -10380.824   -8588.1027   0.97513831 
   40300    35.358609   -954.38828    1772.2556   -10381.333   -8609.0772   0.97513831 
   40400    35.649042   -934.42273    1786.8127   -10392.838   -8606.0249   0.97513831 
   40500    35.756756   -956.73591    1792.2116   -10356.153   -8563.9411   0.97513831 
   40600    35.849074   -906.00928    1796.8388   -10371.939      -8575.1   0.97513831 
   40700    35.719948   -973.50988    1790.3667   -10374.024   -8583.6575   0.97513831 
   40800    35.590912   -951.74301    1783.8991   -10373.368   -8589.4693   0.97513831 
   40900    35.852991   -943.71689    1797.0351    -10370.88    -8573.845   0.97513831 
   41000    35.746753   -936.12982    1791.7102   -10368.036   -8576.3259   0.97513831 
   41100     35.78883   -960.94826    1793.8192    -10383.81   -8589.9906   0.97513831 
   41200    35.743339   -1005.2213    1791.5391   -10386.441   -8594.9014   0.97513831 
   41300     35.82126    -1033.686    1795.4447   -10365.712   -8570.2673   0.97513831 
   41400    36.121346   -954.73022    1810.4857   -10377.983   -8567.4971   0.97513831 
   41500    35.648625   -956.11102    1786.7918   -10382.016   -8595.2242   0.97513831 
   41600    35.811101   -978.63442    1794.9355   -10365.788   -8570.8524   0.97513831 
   41700    35.842874   -960.11045     1796.528    -10352.64   -8556.1121   0.97513831 
   41800    36.492959   -1050.5991    1829.1118   -10355.731   -8526.6193   0.97513831 
   41900    36.647372    -988.4673    1836.8513   -10340.087   -8503.2354   0.97513831 
   42000    36.379729   -985.72425    1823.4365   -10365.033   -8541.5962   0.97513831 
   42100    36.452272   -1022.3975    1827.0725   -10363.641   -8536.5681   0.97513831 
   42200    36.123277   -1004.1392    1810.5825   -10380.011   -8569.4288   0.97513831 
   42300    36.512056   -955.95399     1830.069   -10374.826   -8544.7567   0.97513831 
   42400    36.142836   -1042.3447    1811.5628   -10329.596    -8518.033   0.97513831 
   42500    36.314487    -977.9221    1820.1664   -10344.732   -8524.5661   0.97513831 
   42600    36.512306    -982.9421    1830.0815   -10341.638   -8511.5569   0.97513831 
   42700    36.646876    -955.8392    1836.8265   -10354.898   -8518.0711   0.97513831 
   42800    36.657898   -1038.4054    1837.3789   -10339.232    -8501.853   0.97513831 
   42900    36.363878   -943.69486     1822.642   -10344.608   -8521.9658   0.97513831 
   43000    36.459661   -909.82807    1827.4428   -10348.331   -8520.8883   0.97513831 
   43100    36.633055    -929.5775    1836.1337    -10365.95   -8529.8162   0.97513831 
   43200    37.217661   -990.10661    1865.4355   -10331.969   -8466.5333   0.97513831 
   43300    37.062919    -959.8138    1857.6795   -10344.913   -8487.2338   0.97513831 
   43400    37.208588   -982.80541    1864.9808   -10358.113   -8493.1327   0.97513831 
   43500     37.11806   -944.86841    1860.4433   -10346.144   -8485.7005   0.97513831 
   43600    36.819833   -1064.2566    1845.4955   -10331.779   -8486.2835   0.97513831 
   43700    37.146613   -910.59957    1861.8745   -10321.974   -8460.0998   0.97513831 
   43800    36.778938   -959.78948    1843.4457   -10343.383    -8499.937   0.97513831 
   43900    36.746917   -909.36067    1841.8408   -10335.441   -8493.6003   0.97513831 
   44000    37.086356   -1020.0405    1858.8542   -10340.338   -8481.4834   0.97513831 
   44100    37.472799   -948.19197    1878.2236   -10358.606   -8480.3821   0.97513831 
   44200    37.385597   -894.02657    1873.8529   -10345.716   -8471.8634   0.97513831 
   44300    37.533793   -952.52056    1881.2808   -10312.573   -8431.2918   0.97513831 
   44400    37.455914   -957.24359    1877.3773   -10336.777   -8459.3994   0.97513831 
   44500    37.260529   -958.40098    1867.5842    -10323.36   -8455.7755   0.97513831 
   44600    37.512487   -969.39025    1880.2129   -10319.744   -8439.5306   0.97513831 
   44700    37.150576   -982.38979    1862.0731   -10324.935   -8462.8615   0.97513831 
   44800    37.173454   -980.11451    1863.2198   -10314.503   -8451.2833   0.97513831 
   44900    37.801189   -934.53334    1894.6833   -10353.659    -8458.976   0.97513831 
   45000    37.356604   -930.49949    1872.3997   -10299.204   -8426.8039   0.97513831 
   45100    37.609416   -919.71934    1885.0712   -10309.502   -8424.4306   0.97513831 
   45200    37.051786   -939.86394    1857.1215    -10313.41   -8456.2885   0.97513831 
   45300     38.04283   -994.63854    1906.7949   -10332.243   -8425.4476   0.97513831 
   45400    37.815771   -912.17689    1895.4142   -10307.763   -8412.3492   0.97513831 
   45500    37.543617   -948.04856    1881.7732   -10325.244   -8443.4709   0.97513831 
   45600    38.050078   -993.78012    1907.1582   -10334.599   -8427.4407   0.97513831 
   45700    37.945299   -901.52418    1901.9065   -10322.458   -8420.5516   0.97513831 
   45800    37.702486   -908.50448    1889.7361   -10329.707    -8439.971   0.97513831 
   45900    37.922489   -936.72289    1900.7632   -10334.934   -8434.1705   0.97513831 
   46000    37.497485    -920.5941     1879.461   -10302.298   -8422.8371   0.97513831 
   46100    37.963638   -946.48762    1902.8256   -10300.544   -8397.7183   0.97513831 
   46200    38.038831   -956.90288    1906.5945   -10295.714   -8389.1196   0.97513831 
   46300    37.950186   -853.77994    1902.1514   -10278.187   -8376.0351   0.97513831 
   46400    38.014035   -932.29213    1905.3516   -10295.715   -8390.3632   0.97513831 
   46500    37.563073    -917.8824    1882.7484   -10309.767   -8427.0186   0.97513831 
   46600    38.231975   -876.92492    1916.2753    -10298.09   -8381.8152   0.97513831 
   46700    38.260249   -836.94438    1917.6925   -10316.045   -8398.3528   0.97513831 
   46800    38.292838   -937.56256    1919.3259   -10307.781   -8388.4554   0.97513831 
   46900    38.257845   -960.84048     1917.572   -10287.846   -8370.2738   0.97513831 
   47000    38.846663   -908.27439    1947.0849   -10315.848    -8368.763   0.97513831 
   47100    38.627002   -923.59685     1936.075   -10291.068   -8354.9931   0.97513831 
   47200    38.064173   -925.73869    1907.8647   -10275.974   -8368.1091   0.97513831 
   47300     38.66789    -924.7863    1938.1244    -10260.05    -8321.926   0.97513831 
   47400    38.499825   -985.91425    1929.7006   -10296.738   -8367.0372   0.97513831 
   47500    39.088659   -847.66501    1959.2143   -10264.682   -8305.4677   0.97513831 
   47600    38.519862   -965.04537    1930.7049   -10269.683   -8338.9783   0.97513831 
   47700    37.928124   -958.31673    1901.0456    -10267.17   -8366.1249   0.97513831 
   47800     38.99435   -892.22865    1954.4873   -10271.402   -8316.9142   0.97513831 
   47900    39.034468   -772.52544    1956.4981   -10285.721    -8329.223   0.97513831 
   48000    38.734956    -908.3381    1941.4859   -10283.573   -8342.0866   0.97513831 
   48100    38.794337   -859.43167    1944.4622   -10272.464    -8328.002   0.97513831 
   48200    39.283384    -947.4395    1968.9744   -10294.787   -8325.8125   0.97513831 
   48300    39.451431   -874.07922    1977.3973     -10287.3   -8309.9026   0.97513831 
   48400    38.746182   -806.44338    1942.0486   -10299.486   -8357.4374   0.97513831 
   48500    39.030766   -974.50724    1956.3126   -10273.522   -8317.2093   0.97513831 
   48600    39.203772   -892.77281     1964.984   -10282.256   -8317.2718   0.97513831 
   48700    38.990997     -908.625    1954.3193   -10283.593   -8329.2739   0.97513831 
   48800    39.051156   -912.25955    1957.3346   -10292.097   -8334.7626   0.97513831 
   48900    39.033494   -925.61523    1956.4493   -10261.976   -8305.5264   0.97513831 
   49000     39.01659   -955.71039     1955.602   -10264.971   -8309.3694   0.97513831 
   49100    39.591593   -906.08727    1984.4225   -10277.994   -8293.5716   0.97513831 
   49200    39.185274   -917.44552    1964.0569   -10273.355   -8309.2977   0.97513831 
   49300    39.303305   -934.20581    1969.9729   -10286.283   -8316.3098   0.97513831 
   49400    39.043327   -951.42301    1956.9422   -10266.688   -8309.7458   0.97513831 
   49500    39.297919   -909.21388    1969.7029   -10296.374   -8326.6712   0.97513831 
   49600    39.327117   -825.75115    1971.1664   -10226.795   -8255.6288   0.97513831 
   49700    39.324327   -906.16517    1971.0265   -10262.931   -8291.9049   0.97513831 
   49800    39.583557   -926.96996    1984.0198   -10261.189   -8277.1692   0.97513831 
   49900    39.601852   -983.03226    1984.9368   -10251.487     -8266.55   0.97513831 
   50000    39.519179   -940.55543     1980.793   -10258.617    -8277.824   0.97513831 
   50100    39.318302   -944.76731    1970.7246   -10267.773   -8297.0484   0.97513831 
   50200    39.956244   -938.81249    2002.6997   -10228.442   -8225.7427   0.97513831 
   50300    39.683412   -902.13661    1989.0247   -10252.135   -8263.1098   0.97513831 
   50400    39.878182   -946.75523     1998.787   -10232.939   -8234.1518   0.97513831 
   50500    39.736631   -888.81816    1991.6922   -10219.257   -8227.5652   0.97513831 
   50600    39.582152   -948.06266    1983.9493   -10252.138   -8268.1887   0.97513831 
   50700    39.680008   -956.41343    1988.8541    -10289.06    -8300.206   0.97513831 
   50800    39.972493   -1018.4407    2003.5141   -10262.811   -8259.2968   0.97513831 
   50900    40.030102   -1025.5173    2006.4016   -10267.137   -8260.7355   0.97513831 
   51000    40.009274   -927.28347    2005.3577   -10264.368   -8259.0101   0.97513831 
   51100    39.737468    -948.8693    1991.7341   -10245.076   -8253.3422   0.97513831 
   51200    40.079911   -1045.7577    2008.8982   -10230.569   -8221.6713   0.97513831 
   51300     40.59033    -1025.538    2034.4816   -10232.033   -8197.5515   0.97513831 
   51400    40.161606   -963.59031    2012.9929   -10222.017    -8209.024   0.97513831 
   51500    39.610333   -861.57742    1985.3618   -10209.726   -8224.3639   0.97513831 
   51600    40.280201   -983.98027    2018.9372   -10237.394   -8218.4565   0.97513831 
   51700    40.056206   -1027.1791      2007.71   -10224.481    -8216.771   0.97513831 
   51800    40.409429   -947.31258    2025.4144   -10227.067   -8201.6526   0.97513831 
   51900    39.971688   -833.57884    2003.4738   -10220.668   -8217.1938   0.97513831 
   52000    40.432105   -987.21574    2026.5509   -10243.749   -8217.1979   0.97513831 
   52100    40.410116   -901.99802    2025.4488   -10226.796   -8201.3476   0.97513831 
   52200    40.257948   -945.67221    2017.8218   -10215.311   -8197.4896   0.97513831 
   52300    40.054187   -938.36627    2007.6088   -10214.015    -8206.406   0.97513831 
   52400    40.231633   -910.57282    2016.5028   -10224.043   -8207.5404   0.97513831 
   52500     40.72562   -891.71978    2041.2626   -10257.071   -8215.8088   0.97513831 
   52600     40.77564   -860.12228    2043.7697   -10206.513   -8162.7438   0.97513831 
   52700    40.892881   -959.11989    2049.6461   -10231.176   -8181.5296   0.97513831 
   52800    40.797305   -947.30642    2044.8556    -10252.51   -8207.6542   0.97513831 
   52900    40.461914   -823.33078     2028.045   -10202.905     -8174.86   0.97513831 
   53000     40.06419   -963.47948    2008.1102   -10206.841    -8198.731   0.97513831 
   53100    40.746534   -945.49352    2042.3109   -10198.731   -8156.4204   0.97513831 
   53200    40.794966   -854.91798    2044.7384   -10186.458   -8141.7196   0.97513831 
   53300    40.703875   -903.82269    2040.1727   -10234.459   -8194.2867   0.97513831 
   53400    40.853061   -822.91162    2047.6502   -10220.284   -8172.6342   0.97513831 
   53500    40.598832    -896.6968    2034.9077   -10193.915   -8159.0069   0.97513831 
   53600    41.031518   -920.96683    2056.5949   -10195.637   -8139.0417   0.97513831 
   53700    41.353849   -909.49573    2072.7509   -10160.046   -8087.2955   0.97513831 
   53800    41.118617   -820.02844    2060.9605   -10185.108   -8124.1478   0.97513831 
   53900    41.384509    -909.7219    2074.2877   -10179.846   -8105.5579   0.97513831 
   54000    41.362806   -977.50955    2073.1998   -10164.096   -8090.8957   0.97513831 
   54100    41.058324   -946.63197    2057.9385   -10180.036   -8122.0978   0.97513831 
   54200    41.322501    -1002.094    2071.1797   -10214.938   -8143.7582   0.97513831 
   54300    41.278005   -876.76716    2068.9494    -10197.74   -8128.7904   0.97513831 
   54400    41.818941   -882.98715    2096.0624   -10196.219    -8100.157   0.97513831 
   54500    41.336308   -931.43767    2071.8717   -10145.393   -8073.5209   0.97513831 
   54600    41.856978   -888.65464    2097.9689   -10181.614   -8083.6451   0.97513831 
   54700     41.65981   -878.72259    2088.0864   -10170.531   -8082.4445   0.97513831 
   54800     41.45835   -811.05343    2077.9887    -10183.49   -8105.5014   0.97513831 
   54900    41.946105   -850.87751    2102.4361   -10178.955   -8076.5187   0.97513831 
   55000    42.156712   -1025.8444    2112.9922   -10168.197   -8055.2052   0.97513831 
   55100    41.386946   -923.40409    2074.4098   -10216.003   -8141.5933   0.97513831 
   55200    41.113939    -969.9997     2060.726   -10155.541   -8094.8149   0.97513831 
   55300    41.954918   -947.61046    2102.8779   -10180.346   -8077.4678   0.97513831 
   55400     41.57276   -999.13533    2083.7232   -10175.252   -8091.5284   0.97513831 
   55500    41.943776   -944.70398    2102.3194   -10134.394    -8032.075   0.97513831 
   55600    41.854551   -920.90324    2097.8472   -10138.174   -8040.3266   0.97513831 
   55700    41.758576   -880.68334    2093.0368   -10155.971   -8062.9347   0.97513831 
   55800    41.327493    -839.7361    2071.4299   -10165.456   -8094.0265   0.97513831 
   55900    41.966066   -1003.8678    2103.4366   -10149.968   -8046.5311   0.97513831 
   56000    42.104266   -986.15001    2110.3635    -10170.39   -8060.0267   0.97513831 
   56100    42.095463   -885.77717    2109.9223   -10175.347   -8065.4245   0.97513831 
   56200    41.895593   -918.15371    2099.9043   -10162.736   -8062.8319   0.97513831 
   56300    42.490157   -887.91662    2129.7053   -10176.031    -8046.326   0.97513831 
   56400    41.860313   -912.68892     2098.136   -10186.693   -8088.5574   0.97513831 
   56500    42.084571   -899.52612    2109.3764   -10154.886     -8045.51   0.97513831 
   56600    41.691702   -929.93737    2089.6849   -10134.307    -8044.622   0.97513831 
   56700    42.235264   -925.90499    2116.9295   -10173.054   -8056.1248   0.97513831 
   56800    42.379957   -933.80468    2124.1818   -10146.703   -8022.5213   0.97513831 
   56900    42.468786   -839.77077    2128.6341   -10158.995   -8030.3609   0.97513831 
   57000    41.833294   -896.03841    2096.7818   -10121.151   -8024.3697   0.97513831 
   57100    42.005628   -941.01633    2105.4196   -10145.339   -8039.9199   0.97513831 
   57200    41.997932   -885.23839    2105.0338   -10139.248   -8034.2143   0.97513831 
   57300     43.05883   -858.56838    2158.2085   -10165.273   -8007.0649   0.97513831 
   57400    42.693104    -807.9169    2139.8775   -10157.777      -8017.9   0.97513831 
   57500    42.349225   -906.22665    2122.6415   -10137.474    -8014.832   0.97513831 
   57600    42.315509   -912.27317    2120.9515    -10167.28   -8046.3281   0.97513831 
   57700     42.16817   -779.67095    2113.5666   -10136.865   -8023.2985   0.97513831 
   57800    42.699125    -867.5278    2140.1793   -10147.349   -8007.1696   0.97513831 
   57900    43.078661   -962.90609    2159.2025   -10095.861   -7936.6585   0.97513831 
   58000     42.78906   -914.08786     2144.687   -10101.657   -7956.9696   0.97513831 
   58100    42.438946    -849.1254    2127.1385   -10165.163   -8038.0246   0.97513831 
   58200    42.690577   -924.36197    2139.7508   -10148.136   -8008.3852   0.97513831 
   58300    43.073168   -861.42674    2158.9272   -10117.475   -7958.5475   0.97513831 
   58400    43.274939   -904.01382    2169.0404   -10134.896   -7965.8559   0.97513831 
   58500    43.275338   -973.34143    2169.0604    -10101.57   -7932.5095   0.97513831 
   58600    42.770674   -910.67021    2143.7654   -10122.959   -7979.1937   0.97513831 
   58700    42.293711   -870.32395     2119.859   -10105.057   -7985.1981   0.97513831 
   58800    42.897118   -978.88378    2150.1031   -10126.925   -7976.8222   0.97513831 
   58900    43.675203   -937.04005    2189.1026   -10123.641   -7934.5385   0.97513831 
   59000    42.538792   -927.32144     2132.143   -10097.793   -7965.6505   0.97513831 
   59100    43.229343   -925.27593     2166.755   -10126.141    -7959.386   0.97513831 
   59200    42.828716   -933.86843    2146.6747   -10149.546   -8002.8714   0.97513831 
   59300    43.122031    -805.7391    2161.3763   -10129.102   -7967.7259   0.97513831 
   59400     43.58932   -955.26925    2184.7979   -10115.036   -7930.2384   0.97513831 
   59500    44.145529    -900.5698    2212.6763    -10115.58   -7902.9037   0.97513831 
   59600    43.292696   -958.80308    2169.9304   -10079.063   -7909.1324   0.97513831 
   59700    43.202872   -815.24511    2165.4282   -10094.812   -7929.3834   0.97513831 
   59800     43.99861   -810.09252    2205.3124   -10083.094   -7877.7817   0.97513831 
   59900    44.038716    -803.1826    2207.3226   -10097.959   -7890.6361   0.97513831 
   60000    43.354442   -828.46422    2173.0252    -10076.88   -7903.8547   0.97513831 
   60100       43.094   -912.07756    2159.9713   -10108.381   -7948.4098   0.97513831 
   60200    43.225469     -891.947    2166.5608   -10091.769   -7925.2084   0.97513831 
   60300    43.836588   -823.74917    2197.1916   -10097.152     -7899.96   0.97513831 
   60400    43.485796   -828.63799     2179.609   -10098.919   -7919.3097   0.97513831 
   60500    44.035547   -853.96942    2207.1638    -10081.82   -7874.6561   0.97513831 
   60600    44.071403   -900.57909     2208.961   -10091.468   -7882.5067   0.97513831 
   60700     43.38287   -878.85883    2174.4501   -10099.527   -7925.0771   0.97513831 
   60800    43.951561   -773.11267    2202.9542   -10098.245   -7895.2909   0.97513831 
   60900    43.960395   -867.42746     2203.397   -10079.591   -7876.1943   0.97513831 
   61000     43.74757   -823.21073    2192.7298   -10083.487   -7890.7575   0.97513831 
   61100    44.094118   -774.34495    2210.0995   -10072.185   -7862.0858   0.97513831 
   61200    44.315433   -826.61027    2221.1923   -10062.112   -7840.9194   0.97513831 
   61300    43.760893   -869.12816    2193.3975   -10073.489   -7880.0911   0.97513831 
   61400    44.340525   -839.04512      2222.45   -10078.407   -7855.9571   0.97513831 
   61500    44.096711   -850.36987    2210.2295   -10050.417   -7840.1877   0.97513831 
   61600    43.720255   -793.81125    2191.3607   -10037.473    -7846.112   0.97513831 
   61700    44.219722   -794.12611    2216.3951   -10074.148    -7857.753   0.97513831 
   61800    43.801518   -901.52711    2195.4337   -10089.385    -7893.951   0.97513831 
   61900    44.422263   -795.46937    2226.5469   -10049.102   -7822.5546   0.97513831 
   62000    43.820525   -780.45808    2196.3864   -10054.269   -7857.8827   0.97513831 
   62100    44.213148   -828.78048    2216.0656   -10056.678   -7840.6124   0.97513831 
   62200     44.68774    -846.7857    2239.8532   -10060.603   -7820.7501   0.97513831 
   62300    44.302174    -821.9333    2220.5278   -10048.923    -7828.395   0.97513831 
   62400    44.638971   -856.73087    2237.4088   -10071.141   -7833.7319   0.97513831 
   62500    44.275347   -846.30832    2219.1832   -10003.989   -7784.8056   0.97513831 
   62600    45.080972   -899.64868    2259.5629   -10044.226   -7784.6629   0.97513831 
   62700    44.854874    -858.1241    2248.2304   -10040.014   -7791.7833   0.97513831 
   62800    44.519957   -928.60382    2231.4436   -10019.059   -7787.6154   0.97513831 
   62900      44.5182   -946.05297    2231.3555   -10031.181   -7799.8251   0.97513831 
   63000    45.044057   -893.00732    2257.7127   -10032.766   -7775.0535   0.97513831 
   63100    44.685428   -868.64711    2239.7373   -9996.0562   -7756.3189   0.97513831 
   63200    44.854166   -873.53787    2248.1949    -10058.68   -7810.4854   0.97513831 
   63300    44.490076   -838.09022    2229.9459     -10035.4   -7805.4541   0.97513831 
   63400    44.518821   -962.53971    2231.3866   -10009.474   -7778.0872   0.97513831 
   63500    45.014214   -843.64378    2256.2169   -10036.825   -7780.6081   0.97513831 
   63600    45.383367   -901.21876    2274.7197   -10074.755   -7800.0354   0.97513831 
   63700    44.798654   -818.80644    2245.4125   -10036.893   -7791.4806   0.97513831 
   63800    45.053174   -777.38238    2258.1697   -10040.161   -7781.9915   0.97513831 
   63900     44.89802   -856.12654     2250.393   -10022.962   -7772.5692   0.97513831 
   64000    45.140625    -795.0467    2262.5529   -10000.479   -7737.9261   0.97513831 
   64100    45.190626   -938.12739    2265.0591   -10016.184   -7751.1252   0.97513831 
   64200    45.476387   -843.33029    2279.3821   -10026.878   -7747.4963   0.97513831 
   64300    45.218793   -927.60128    2266.4709   -10023.583   -7757.1122   0.97513831 
   64400    45.709999   -882.07344    2291.0912   -10013.943   -7722.8518   0.97513831 
   64500    46.183147   -756.83363    2314.8065   -10016.144   -7701.3374   0.97513831 
   64600    45.366315   -909.45244     2273.865   -10048.725   -7774.8602   0.97513831 
   64700     44.84246   -819.27827    2247.6082   -10004.062   -7756.4536   0.97513831 
   64800    44.904667   -899.00615    2250.7261   -10059.038    -7808.312   0.97513831 
   64900    45.262619   -913.87882    2268.6675   -10024.876   -7756.2082   0.97513831 
   65000    45.372617    -865.3511    2274.1809   -10057.192   -7783.0113   0.97513831 
   65100    45.282004   -825.06061    2269.6391   -9992.9141   -7723.2749   0.97513831 
   65200    45.241402   -824.88401    2267.6041   -10021.422   -7753.8179   0.97513831 
   65300    45.636182   -828.25917    2287.3914   -10023.141   -7735.7497   0.97513831 
   65400     45.56498   -915.71577    2283.8226   -10004.053   -7720.2305   0.97513831 
   65500    45.350471   -785.38043    2273.0709    -9979.802   -7706.7311   0.97513831 
   65600    45.784629   -889.04147    2294.8319    -10017.99   -7723.1586   0.97513831 
   65700    45.712322   -784.74382    2291.2077   -9992.8233   -7701.6157   0.97513831 
   65800    45.421608   -783.06768    2276.6364   -9975.7678   -7699.1313   0.97513831 
   65900    45.510216   -848.68204    2281.0776   -10005.627    -7724.549   0.97513831 
   66000    45.371772   -776.10041    2274.1385   -10003.636   -7729.4979   0.97513831 
   66100    46.048633   -872.32543    2308.0644   -10006.169   -7698.1049   0.97513831 
   66200    46.305496   -913.39936    2320.9389   -10012.407   -7691.4682   0.97513831 
   66300    45.728244   -937.28718    2292.0057   -9971.6077   -7679.6019   0.97513831 
   66400    45.644741   -837.81729    2287.8203   -10029.505   -7741.6847   0.97513831 
   66500    45.488737   -751.71512    2280.0011   -9994.4312   -7714.4301   0.97513831 
   66600      45.8546   -828.68296     2298.339   -9955.1858   -7656.8468   0.97513831 
   66700    46.633337   -841.54421    2337.3711   -10020.173   -7682.8019   0.97513831 
   66800    46.178712   -834.85534    2314.5842   -9965.0771   -7650.4929   0.97513831 
   66900    45.961861   -849.30774    2303.7151   -9983.6064   -7679.8912   0.97513831 
   67000    45.981414   -857.42812    2304.6952   -9955.8491    -7651.154   0.97513831 
   67100    45.979858   -907.43453    2304.6172   -9984.9827   -7680.3655   0.97513831 
   67200    46.373644   -737.16519    2324.3547   -9961.4405   -7637.0858   0.97513831 
   67300    46.336271   -703.28894    2322.4814   -9970.1081   -7647.6267   0.97513831 
   67400    46.629959   -828.11413    2337.2017   -9988.0375   -7650.8358   0.97513831 
   67500    46.656874   -910.72594    2338.5508    -9961.306   -7622.7552   0.97513831 
   67600    46.850446    -859.2482    2348.2531    -9951.971    -7603.718   0.97513831 
   67700    46.691718   -802.07651    2340.2973   -9951.5045   -7611.2072   0.97513831 
   67800    46.301066   -835.67042    2320.7169   -9971.0801   -7650.3632   0.97513831 
   67900    46.687084   -849.59491     2340.065   -9975.1021   -7635.0371   0.97513831 
   68000    46.702626   -819.43917     2340.844   -9950.9004   -7610.0564   0.97513831 
   68100    46.320992   -849.24768    2321.7156    -9964.391   -7642.6754   0.97513831 
   68200    46.112433   -749.30132    2311.2622   -9949.5879   -7638.3258   0.97513831 
   68300    46.419511    -748.3308    2326.6536   -9947.6907   -7621.0371   0.97513831 
   68400    46.718213   -861.32429    2341.6253   -9933.1466   -7591.5213   0.97513831 
   68500    46.988428   -806.55749    2355.1691   -9926.5076   -7571.3385   0.97513831 
   68600    47.163927   -825.35694    2363.9655   -9946.7702   -7582.8047   0.97513831 
   68700    46.695296   -814.02437    2340.4766   -9946.5838   -7606.1072   0.97513831 
   68800    47.000672   -857.66954    2355.7827    -9948.393   -7592.6102   0.97513831 
   68900       46.845   -755.05862    2347.9801   -9928.4652   -7580.4851   0.97513831 
   69000    47.186013   -786.38038    2365.0725   -9926.1285    -7561.056   0.97513831 
   69100    47.129819   -777.13785    2362.2559   -9960.3703   -7598.1143   0.97513831 
   69200    46.732887   -912.26462    2342.3607    -9939.048   -7596.6872   0.97513831 
   69300    46.196808   -799.61656    2315.4912   -9954.2505   -7638.7593   0.97513831 
   69400    47.058775   -881.49151     2358.695   -9970.5548   -7611.8597   0.97513831 
   69500    47.364876    -839.8028    2374.0375   -9927.5846   -7553.5471   0.97513831 
   69600    47.482653   -750.86595    2379.9408   -9974.1427   -7594.2019   0.97513831 
   69700    47.168809    -795.3012    2364.2102   -9908.4785   -7544.2683   0.97513831 
   69800    47.224739   -793.19136    2367.0135   -9961.8158   -7594.8023   0.97513831 
   69900    47.227966   -861.02026    2367.1753   -9922.4342   -7555.2589   0.97513831 
   70000    47.353125   -819.57927    2373.4485   -9903.1265   -7529.6779   0.97513831 
   70100    47.256879   -819.12324    2368.6245    -9940.957   -7572.3325   0.97513831 
   70200    46.566381   -782.82929    2334.0151   -9969.3785   -7635.3634   0.97513831 
   70300    47.102198   -864.26062    2360.8715   -9938.3625    -7577.491   0.97513831 
   70400    48.201115   -834.99293    2415.9518   -9965.4584   -7549.5066   0.97513831 
   70500     47.50165   -858.12757     2380.893   -9928.8727   -7547.9798   0.97513831 
   70600      47.5757   -918.52833    2384.6045   -9922.8777   -7538.2732   0.97513831 
   70700    48.083026    -811.3334    2410.0328    -9947.779   -7537.7461   0.97513831 
   70800    47.090791   -850.73161    2360.2997   -9951.1786   -7590.8789   0.97513831 
   70900     47.43021   -906.77989    2377.3122   -9925.5003   -7548.1881   0.97513831 
   71000    48.079665   -838.40161    2409.8644   -9884.3073   -7474.4429   0.97513831 
   71100    47.281224   -866.86159    2369.8447   -9922.4338   -7552.5891   0.97513831 
   71200    47.377844   -870.78386    2374.6875   -9911.8558   -7537.1683   0.97513831 
   71300    47.850399   -929.07068    2398.3731   -9877.2433   -7478.8703   0.97513831 
   71400    48.043214   -893.71406    2408.0374   -9946.8602   -7538.8228   0.97513831 
   71500    48.505931   -866.34947    2431.2299   -9934.9802   -7503.7504   0.97513831 
   71600    48.000663   -850.80673    2405.9046   -9941.6854   -7535.7808   0.97513831 
   71700    47.520221    -823.2054    2381.8238   -9931.4081   -7549.5843   0.97513831 
   71800     48.20216    -794.2261    2416.0042   -9890.4642     -7474.46   0.97513831 
   71900    47.702239   -863.36259    2390.9469   -9889.8196   -7498.8726   0.97513831 
   72000    48.499646   -807.59755    2430.9148   -9902.8531   -7471.9383   0.97513831 
   72100     48.09019   -861.11493    2410.3919    -9894.856    -7484.464   0.97513831 
   72200    48.465938   -776.06316    2429.2253   -9922.9978   -7493.7725   0.97513831 
   72300     47.54546   -785.62937    2383.0888   -9901.3536   -7518.2648   0.97513831 
   72400     48.67687   -785.43607    2439.7977   -9899.0124   -7459.2147   0.97513831 
   72500    48.194766   -907.80961    2415.6335   -9893.6594   -7478.0259   0.97513831 
   72600    48.444822   -894.66522    2428.1669     -9924.03   -7495.8631   0.97513831 
   72700    48.124628   -848.02218    2412.1181   -9915.2446   -7503.1266   0.97513831 
   72800    48.283162   -862.14348    2420.0641   -9887.7177   -7467.6536   0.97513831 
   72900    48.862096   -730.62986    2449.0817   -9883.8991   -7434.8175   0.97513831 
   73000    49.070588   -733.16646    2459.5318   -9881.6175   -7422.0857   0.97513831 
   73100    48.725482   -830.32137    2442.2342   -9892.1987   -7449.9645   0.97513831 
   73200    49.071326   -839.69912    2459.5687   -9873.7014   -7414.1327   0.97513831 
   73300    48.669444   -775.25962    2439.4255   -9903.4599   -7464.0344   0.97513831 
   73400    48.597751   -785.30679    2435.8321   -9871.7995   -7435.9675   0.97513831 
   73500     49.32024   -833.98585    2472.0449   -9856.0559    -7384.011   0.97513831 
   73600    47.489315   -799.06821    2380.2747   -9865.1137    -7484.839   0.97513831 
   73700    48.173705   -792.52925    2414.5779   -9867.1962   -7452.6183   0.97513831 
   73800     48.56122   -813.81139    2434.0011   -9923.1147   -7489.1136   0.97513831 
   73900    48.474903    -800.1052    2429.6746   -9888.3582   -7458.6836   0.97513831 
   74000     48.64968   -860.25663    2438.4349     -9833.65   -7395.2151   0.97513831 
   74100    49.048457    -853.2538    2458.4225   -9837.8301   -7379.4076   0.97513831 
   74200    48.809581   -815.44915    2446.4495   -9844.3756   -7397.9261   0.97513831 
   74300    49.282311   -910.16613    2470.1438   -9874.9652   -7404.8214   0.97513831 
   74400    48.223072   -856.49283    2417.0523   -9847.7776   -7430.7253   0.97513831 
   74500    48.437259   -832.14833    2427.7879   -9851.6728   -7423.8849   0.97513831 
   74600    48.930028   -751.29459    2452.4866   -9863.0788   -7410.5922   0.97513831 
   74700    48.661291   -726.65747    2439.0168     -9873.99   -7434.9731   0.97513831 
   74800    48.214652   -735.53509    2416.6302   -9860.4894   -7443.8592   0.97513831 
   74900    48.423477   -740.86951    2427.0971   -9836.0341   -7408.9371   0.97513831 
   75000      49.4037    -814.0099    2476.2281   -9862.2159   -7385.9877   0.97513831 
   75100     49.23243   -787.12515    2467.6437   -9850.7008   -7383.0572   0.97513831 
   75200    48.344496   -825.27687    2423.1383   -9840.5294   -7417.3911   0.97513831 
   75300      49.2594   -848.18937    2468.9954   -9841.3372   -7372.3417   0.97513831 
   75400    49.154086   -877.12732    2463.7169    -9889.741   -7426.0241   0.97513831 
   75500    49.352244   -801.93553     2473.649   -9847.8135   -7374.1645   0.97513831 
   75600     49.56401   -721.05778    2484.2632   -9793.3599   -7309.0966   0.97513831 
   75700    49.479451   -776.78973    2480.0249   -9858.4075   -7378.3826   0.97513831 
   75800    49.378753   -827.65674    2474.9777   -9821.1861   -7346.2084   0.97513831 
   75900    49.402809   -817.54843    2476.1835   -9839.7929   -7363.6094   0.97513831 
   76000    49.575198   -799.48748     2484.824    -9839.831    -7355.007   0.97513831 
   76100    49.206727   -784.75498    2466.3554   -9847.8762   -7381.5208   0.97513831 
   76200    49.297741   -803.70956    2470.9172   -9831.3938   -7360.4766   0.97513831 
   76300    49.782377   -785.21488    2495.2083   -9842.4407   -7347.2324   0.97513831 
   76400    49.474288   -811.70336    2479.7661    -9844.744   -7364.9779   0.97513831 
   76500    49.556158   -899.96344    2483.8697   -9861.4211   -7377.5514   0.97513831 
   76600    48.871518   -797.65897    2449.5539   -9834.5067   -7384.9528   0.97513831 
   76700    48.815304    -740.0962    2446.7363   -9848.1221   -7401.3858   0.97513831 
   76800    49.435428   -760.37318    2477.8184   -9853.2454    -7375.427   0.97513831 
   76900    49.143287   -867.67998    2463.1756   -9839.2194   -7376.0438   0.97513831 
   77000    49.424638    -860.5174    2477.2776    -9829.423   -7352.1454   0.97513831 
   77100    49.812323   -803.12959    2496.7092   -9804.0603   -7307.3511   0.97513831 
   77200    49.546373   -709.28652    2483.3792   -9780.3684   -7296.9892   0.97513831 
   77300     49.06228   -792.80114    2459.1153   -9807.5051   -7348.3898   0.97513831 
   77400    50.089655   -725.16084    2510.6097   -9773.8024   -7263.1926   0.97513831 
   77500    49.388388   -790.94058    2475.4606   -9820.8613   -7345.4007   0.97513831 
   77600    49.668451   -720.88078    2489.4981   -9800.5296   -7311.0316   0.97513831 
   77700    49.727617   -840.84661    2492.4636   -9808.1664   -7315.7029   0.97513831 
   77800    50.447845   -822.01204    2528.5631   -9784.9912   -7256.4281   0.97513831 
   77900    50.482283   -842.62481    2530.2892   -9812.5209   -7282.2317   0.97513831 
   78000    50.228747   -712.45527    2517.5814   -9796.0054    -7278.424   0.97513831 
   78100     49.95746   -770.99425    2503.9839   -9775.5685   -7271.5847   0.97513831 
   78200    50.201464   -739.94036    2516.2139   -9807.9865   -7291.7726   0.97513831 
   78300    49.968919   -742.74058    2504.5582   -9788.9945   -7284.4363   0.97513831 
   78400     50.70347   -790.44112    2541.3756   -9806.3652   -7264.9896   0.97513831 
   78500    50.505578   -857.08285    2531.4568   -9815.4252   -7283.9684   0.97513831 
   78600    51.014385   -776.95337    2556.9594   -9787.6674   -7230.7081   0.97513831 
   78700    49.905842    -735.4191    2501.3966   -9773.0045   -7271.6079   0.97513831 
   78800       50.315   -795.04311    2521.9046   -9753.1137   -7231.2091   0.97513831 
   78900    50.301285   -868.77711    2521.2171   -9805.4882    -7284.271   0.97513831 
   79000    51.050319   -781.76259    2558.7605   -9828.6141   -7269.8536   0.97513831 
   79100    50.691623   -757.49651    2540.7818   -9768.0178    -7227.236   0.97513831 
   79200    50.387135   -855.98953    2525.5202   -9763.0437   -7237.5235   0.97513831 
   79300    50.425343   -929.17428    2527.4352   -9782.4102   -7254.9749   0.97513831 
   79400    50.743006   -784.73867    2543.3572   -9780.9897   -7237.6324   0.97513831 
   79500    50.839895   -806.19143    2548.2135   -9754.6716   -7206.4581   0.97513831 
   79600    50.473998   -826.42344    2529.8739   -9787.2214   -7257.3475   0.97513831 
   79700    50.192776   -789.16314    2515.7784   -9771.0125   -7255.2341   0.97513831 
   79800    50.767277   -832.56612    2544.5738   -9781.0843   -7236.5105   0.97513831 
   79900     50.88389   -815.14935    2550.4187   -9758.1897    -7207.771   0.97513831 
   80000    51.127806   -890.80195    2562.6443   -9738.7389   -7176.0945   0.97513831 
   80100    51.240492   -781.39106    2568.2924    -9762.605   -7194.3126   0.97513831 
   80200    51.272819   -792.48659    2569.9127   -9727.9536   -7158.0409   0.97513831 
   80300    50.893271    -856.4593    2550.8889   -9759.6726   -7208.7838   0.97513831 
   80400    50.652979    -785.8274    2538.8449   -9773.8392   -7234.9944   0.97513831 
   80500     50.90374   -819.71486    2551.4136   -9742.6758   -7191.2622   0.97513831 
   80600    51.520634   -841.49841    2582.3338   -9741.3216   -7158.9878   0.97513831 
   80700    50.559585    -725.9582    2534.1638   -9728.1378   -7193.9741   0.97513831 
   80800     51.21414   -742.39618    2566.9715   -9737.5547   -7170.5832   0.97513831 
   80900    51.637285   -853.08003    2588.1806   -9757.2876   -7169.1071   0.97513831 
   81000    50.686741    -791.4702    2540.5371   -9767.9722   -7227.4351   0.97513831 
   81100    50.983114   -713.82526     2555.392   -9766.4958   -7211.1038   0.97513831 
   81200     50.70957   -860.00009    2541.6814   -9753.9314     -7212.25   0.97513831 
   81300    51.210022   -772.69679    2566.7652   -9729.8201   -7163.0549   0.97513831 
   81400     51.65503   -863.92526      2589.07   -9737.1539   -7148.0839   0.97513831 
   81500    51.580695   -819.09522    2585.3442   -9748.4659   -7163.1218   0.97513831 
   81600    52.019421   -932.21767    2607.3341   -9725.5012   -7118.1671   0.97513831 
   81700    52.242958   -829.43039    2618.5383   -9757.0207   -7138.4824   0.97513831 
   81800    50.834759   -853.74173    2547.9561   -9764.0556   -7216.0995   0.97513831 
   81900    51.119337   -907.23418    2562.2198   -9764.6238   -7202.4039   0.97513831 
   82000    51.113683   -830.22702    2561.9364   -9759.2619   -7197.3254   0.97513831 
   82100    51.636805   -817.86089    2588.1565   -9746.1106    -7157.954   0.97513831 
   82200    51.329981   -750.05507    2572.7778   -9703.8462   -7131.0684   0.97513831 
   82300    51.795684   -894.89324    2596.1199   -9698.9829    -7102.863   0.97513831 
   82400    51.701646   -821.30331    2591.4065   -9700.2782   -7108.8716   0.97513831 
   82500    51.797117   -825.26542    2596.1917   -9742.2996   -7146.1078   0.97513831 
   82600    50.984334    -880.5417    2555.4532   -9747.1242    -7191.671   0.97513831 
   82700    52.064755   -907.90527    2609.6064   -9727.4778   -7117.8715   0.97513831 
   82800    52.050494   -802.12736    2608.8916   -9749.8072   -7140.9156   0.97513831 
   82900    52.188945   -886.81597     2615.831   -9745.8303   -7129.9993   0.97513831 
   83000    52.654113   -781.25176    2639.1464   -9731.9636   -7092.8172   0.97513831 
   83100    52.006583   -874.02085    2606.6907   -9701.8396   -7095.1489   0.97513831 
   83200    51.539245   -732.65897    2583.2666   -9695.8787   -7112.6121   0.97513831 
   83300    51.857807   -841.63034    2599.2337   -9727.8742   -7128.6405   0.97513831 
   83400    52.414614   -770.56411    2627.1421   -9755.5823   -7128.4402   0.97513831 
   83500    52.431937   -799.41987    2628.0104    -9684.544   -7056.5337   0.97513831 
   83600    52.001452   -747.15591    2606.4335   -9695.8772   -7089.4437   0.97513831 
   83700    52.500013   -837.24605    2631.4225   -9705.9675    -7074.545   0.97513831 
   83800    51.821114   -820.37791    2597.3945   -9706.5562   -7109.1617   0.97513831 
   83900    51.847894   -863.77408    2598.7368   -9676.7629   -7078.0261   0.97513831 
   84000    52.114958   -811.23198    2612.1227   -9690.1596   -7078.0369   0.97513831 
   84100    51.829976   -827.97562    2597.8387   -9700.2568   -7102.4181   0.97513831 
   84200    52.508449    -743.4024    2631.8453   -9726.6799   -7094.8346   0.97513831 
   84300    52.993697   -817.12131    2656.1671   -9687.3303   -7031.1632   0.97513831 
   84400    52.634423   -863.91202    2638.1594   -9692.0081   -7053.8487   0.97513831 
   84500    52.582853   -735.34693    2635.5746   -9681.5867    -7046.012   0.97513831 
   84600    52.828456    -803.5634    2647.8848   -9679.7802   -7031.8954   0.97513831 
   84700    51.925112   -808.25215    2602.6071   -9666.4195   -7063.8123   0.97513831 
   84800    52.617113   -830.11843    2637.2918   -9685.9762   -7048.6844   0.97513831 
   84900    53.067925   -802.10834    2659.8876   -9654.6332   -6994.7456   0.97513831 
   85000    52.193186   -807.70464    2616.0436    -9665.303   -7049.2593   0.97513831 
   85100    52.319887   -786.16412    2622.3942   -9630.7078   -7008.3136   0.97513831 
   85200    52.918921   -788.53144    2652.4191   -9673.7859   -7021.3668   0.97513831 
   85300    52.047101   -680.99562    2608.7215   -9705.1031   -7096.3816   0.97513831 
   85400     52.98332   -816.24917     2655.647   -9700.3294   -7044.6824   0.97513831 
   85500    53.341347   -907.51692    2673.5921   -9677.7721     -7004.18   0.97513831 
   85600    52.667948   -834.39738    2639.8398   -9687.5579    -7047.718   0.97513831 
   85700    53.044249   -796.69991    2658.7009   -9647.8354   -6989.1345   0.97513831 
   85800    53.657426   -798.05274    2689.4347   -9683.9143   -6994.4796   0.97513831 
   85900    52.621407   -768.45241     2637.507    -9658.686   -7021.1789   0.97513831 
   86000    53.142028   -888.99144    2663.6018   -9610.5824   -6946.9806   0.97513831 
[...]
  179300    351.48824   -241.95382    17617.406     7143.304     24760.71   0.97513831 
  179400    354.14209   -314.60039    17750.424    6857.7607    24608.184   0.97513831 
  179500    351.93815   -303.67365    17639.957    7070.4325     24710.39   0.97513831 
  179600    348.72151   -330.05564    17478.731    6956.1689      24434.9   0.97513831 
  179700    348.92436   -528.45168    17488.899    6914.9373    24403.836   0.97513831 
  179800    351.22417   -439.82995    17604.171    7019.6162    24623.787   0.97513831 
  179900    350.53939   -627.92365    17569.848    6943.3672    24513.215   0.97513831 
  180000    353.92998   -371.23318    17739.792    6740.0249    24479.817   0.97513831 
  180100     351.9618   -242.23633    17641.142    6906.2278     24547.37   0.97513831 
  180200    350.40146   -313.26983    17562.935    6992.7122    24555.647   0.97513831 
  180300    351.25068   -271.81899      17605.5    6863.5992    24469.099   0.97513831 
  180400    349.84952   -138.33417     17535.27    7076.9903     24612.26   0.97513831 
  180500    350.67526   -581.94653    17576.658    6990.5283    24567.186   0.97513831 
  180600    350.96468   -668.27451    17591.165    7187.5899    24778.754   0.97513831 
  180700    355.84191   -347.33243    17835.623    7283.3583    25118.981   0.97513831 
  180800    354.98978   -473.35208    17792.912    7060.1358    24853.048   0.97513831 
  180900    353.17177   -421.88419    17701.789    7170.8623    24872.651   0.97513831 
  181000    352.88779   -431.97953    17687.555    7151.1493    24838.704   0.97513831 
  181100    352.19559   -576.24619    17652.861    6893.2674    24546.128   0.97513831 
  181200    353.63917   -279.43312    17725.216    6985.3745     24710.59   0.97513831 
  181300    352.40499   -220.01665    17663.356    7067.9588    24731.315   0.97513831 
  181400    352.10388   -458.96478    17648.264    7141.3743    24789.638   0.97513831 
  181500    353.68034   -395.80124    17727.279    6919.0628    24646.342   0.97513831 
  181600    352.50882   -496.65992     17668.56    7039.8981    24708.458   0.97513831 
  181700     355.1941   -303.10509    17803.153    7068.2268     24871.38   0.97513831 
  181800     354.8389   -608.57423    17785.349    6935.5989    24720.948   0.97513831 
  181900    356.86952   -583.15116    17887.129    7092.5656    24979.694   0.97513831 
  182000    354.35873   -186.45693    17761.282    7096.9948    24858.277   0.97513831 
  182100    353.47041   -248.31206    17716.758    7050.8186    24767.576   0.97513831 
  182200    359.90196   -496.24564    18039.122    6916.7236    24955.845   0.97513831 
  182300    357.15616   -523.46955    17901.496    7072.7321    24974.228   0.97513831 
  182400    356.36367   -515.87943    17861.774    7174.8536    25036.628   0.97513831 
  182500    357.48855   -367.94703    17918.156    7204.8728    25123.029   0.97513831 
  182600    359.38196   -430.72661    18013.058    7309.0758    25322.134   0.97513831 
  182700     355.7604   -553.69351    17831.537    7163.2657    24994.803   0.97513831 
  182800    352.12802   -555.47255    17649.474    7220.8579    24870.332   0.97513831 
  182900    352.24942   -381.56484    17655.559    7158.8911     24814.45   0.97513831 
  183000    354.14091   -494.91632    17750.364    7235.5173    24985.882   0.97513831 
  183100    357.73845   -493.47164    17930.681    7203.5579    25134.239   0.97513831 
  183200    355.55655   -416.53544    17821.319    7175.3529    24996.672   0.97513831 
  183300    354.20392   -351.97302    17753.523     7243.488    24997.011   0.97513831 
  183400    357.64197   -374.34561    17925.846    7221.5801    25147.426   0.97513831 
  183500     359.9702   -401.96805    18042.542    7358.3361    25400.878   0.97513831 
  183600    350.55235   -445.25698    17570.497    7425.8308    24996.328   0.97513831 
  183700    356.05356   -315.32887    17846.231    7473.1451    25319.376   0.97513831 
  183800    357.29411   -448.12486     17908.41    7269.6875    25178.098   0.97513831 
  183900    354.22968   -307.59893    17754.814    7259.5064     25014.32   0.97513831 
  184000    356.58066   -546.80837     17872.65    7173.2513    25045.902   0.97513831 
  184100    359.42727   -581.68746    18015.329    7300.1186    25315.448   0.97513831 
  184200     356.5027    -725.2587    17868.743    7421.5611    25290.304   0.97513831 
  184300    358.87343   -595.60584    17987.569    7153.3902    25140.959   0.97513831 
  184400    356.30573   -256.75768     17858.87     7303.237    25162.107   0.97513831 
  184500    355.75253   -351.43058    17831.143    7394.3475     25225.49   0.97513831 
  184600    356.00265    -374.2067    17843.679    7319.2549    25162.934   0.97513831 
  184700     358.5121   -333.59263    17969.458    7434.6265    25404.085   0.97513831 
  184800    355.91869   -385.51829    17839.471    7476.2317    25315.703   0.97513831 
  184900    359.59439   -351.80182    18023.705    7377.7516    25401.457   0.97513831 
  185000    356.31289   -367.17876    17859.229    7401.3735    25260.603   0.97513831 
  185100    357.00754    -579.8545    17894.046    7373.4121    25267.459   0.97513831 
  185200    356.12031    -488.7023    17849.576    7354.9467    25204.523   0.97513831 
  185300    355.99205   -538.40416    17843.148    7417.7431    25260.891   0.97513831 
  185400     357.0522   -371.64529    17896.285    7282.1355    25178.421   0.97513831 
  185500    359.32194   -534.46283     18010.05    7130.7092    25140.759   0.97513831 
  185600     361.1528   -467.29167    18101.816     7328.101    25429.917   0.97513831 
  185700    360.24347   -479.81632    18056.239    7428.5808     25484.82   0.97513831 
  185800    357.53045   -374.63173    17920.256    7449.1172    25369.373   0.97513831 
  185900    359.41154    -545.4543     18014.54    7395.2732    25409.814   0.97513831 
  186000    357.62336   -473.56669    17924.913    7502.9518    25427.865   0.97513831 
  186100    361.18061   -289.82482    18103.211    7414.6767    25517.887   0.97513831 
  186200    362.30641   -342.52918    18159.638    7380.2974    25539.935   0.97513831 
  186300    363.33526   -392.90607    18211.206    7514.8362    25726.043   0.97513831 
  186400    359.30546    -363.2553    18009.224    7494.0565     25503.28   0.97513831 
  186500    359.88882   -536.33819    18038.463    7370.3641    25408.827   0.97513831 
  186600    360.55505   -537.95558    18071.856    7439.4501    25511.306   0.97513831 
  186700    362.15686   -506.89539    18152.142     7446.437    25598.579   0.97513831 
  186800    357.51015    -354.4728    17919.238    7719.1559    25638.394   0.97513831 
  186900    358.97321   -339.67012     17992.57    7748.3404    25740.911   0.97513831 
  187000    360.50668   -554.62356    18069.431    7371.4915    25440.923   0.97513831 
  187100    361.30188   -275.48709    18109.289    7473.5824    25582.871   0.97513831 
  187200    359.22366   -539.13965    18005.124    7499.8925    25505.016   0.97513831 
  187300    356.89869   -458.35501    17888.591    7602.8601    25491.451   0.97513831 
  187400    362.89853   -392.47768    18189.316    7698.3531     25887.67   0.97513831 
  187500    361.43288   -282.51831    18115.855    7545.0539    25660.909   0.97513831 
  187600    358.24916   -223.37553     17956.28     7527.873    25484.153   0.97513831 
  187700     360.8728    -440.4034    18087.782    7365.9845    25453.767   0.97513831 
  187800    359.02073   -387.59174    17994.952    7376.3625    25371.315   0.97513831 
  187900    360.67309   -311.54686    18077.773    7401.7447    25479.517   0.97513831 
  188000    361.75707   -655.71629    18132.104    7410.1366    25542.241   0.97513831 
  188100    359.00548    -118.8613    17994.188    7461.2707    25455.458   0.97513831 
  188200    361.08722   -373.00411     18098.53    7689.8756    25788.405   0.97513831 
  188300    358.75206   -389.79971    17981.486    7585.3083    25566.794   0.97513831 
  188400    359.51245   -328.78879    18019.598    7407.3459    25426.944   0.97513831 
  188500    360.93533   -512.58479    18090.916    7473.8577    25564.774   0.97513831 
  188600    359.24138   -742.44691    18006.012    7586.0347    25592.046   0.97513831 
  188700    360.90767   -416.60364     18089.53     7510.749    25600.279   0.97513831 
  188800    359.23008   -499.93221    18005.446    7776.8817    25782.327   0.97513831 
  188900    363.53422   -470.55738    18221.179    7769.4847    25990.664   0.97513831 
  189000    360.28107   -519.42088    18058.124    7523.3787    25581.502   0.97513831 
  189100    361.31908   -532.08232    18110.151    7704.3546    25814.506   0.97513831 
  189200    361.72823   -492.72615    18130.658    7709.5018     25840.16   0.97513831 
  189300    360.85271   -520.16303    18086.775    7700.3746     25787.15   0.97513831 
  189400    361.80327   -296.72264     18134.42    7625.3436    25759.764   0.97513831 
  189500    362.47119   -696.14885    18167.897    7534.5452    25702.442   0.97513831 
  189600    360.14212   -907.22672    18051.159    7708.2366    25759.396   0.97513831 
  189700    362.98844   -372.39089    18193.823    7571.5299    25765.353   0.97513831 
  189800     360.8932   -362.71179    18088.805    7420.6435    25509.449   0.97513831 
  189900    361.44426   -334.32784    18116.425     7524.174    25640.599   0.97513831 
  190000    362.77803   -305.17635    18183.277    7562.3194    25745.596   0.97513831 
  190100    364.18122   -422.33866    18253.608    7671.3959    25925.004   0.97513831 
  190200    365.72373   -151.70344    18330.922    7528.9278     25859.85   0.97513831 
  190300      364.636   -320.37679    18276.402    7766.8619    26043.264   0.97513831 
  190400    364.70967   -190.05181    18280.095    7393.7389    25673.834   0.97513831 
  190500    365.79438   -328.14063    18334.463    7598.2311    25932.694   0.97513831 
  190600    364.13548   -311.83028    18251.316    7387.1064    25638.422   0.97513831 
  190700    361.32507   -414.71857    18110.451    7507.8668    25618.318   0.97513831 
  190800    364.15218   -535.28034    18252.152     7629.524    25881.676   0.97513831 
  190900    364.07114   -428.84074    18248.091    7521.2754    25769.366   0.97513831 
  191000    361.49136   -404.93558    18118.786     7847.408    25966.194   0.97513831 
  191100    362.52925   -583.01087    18170.807     7779.226    25950.033   0.97513831 
  191200    366.40537   -232.22855    18365.087    7755.5503    26120.638   0.97513831 
  191300    366.64578   -437.71456    18377.138    7784.5908    26161.728   0.97513831 
  191400    361.27854   -356.33972    18108.119    7753.3468    25861.466   0.97513831 
  191500    361.39912   -723.78667    18114.163    7692.7312    25806.894   0.97513831 
  191600    359.24858   -558.40244    18006.373    7682.7238    25689.096   0.97513831 
  191700    361.92807   -510.35732    18140.675    7695.9256      25836.6   0.97513831 
  191800     359.4846   -735.22668    18018.202    7814.3879     25832.59   0.97513831 
  191900    363.40407   -448.60655    18214.655    7684.0292    25898.685   0.97513831 
  192000    362.63886   -466.42077    18176.302    7717.6101    25893.912   0.97513831 
  192100    366.32174   -359.75908    18360.896    7735.0755    26095.971   0.97513831 
  192200    364.68382   -295.29261      18278.8    7841.6212    26120.421   0.97513831 
  192300    367.34879    -457.1209    18412.374    7622.2755    26034.649   0.97513831 
  192400    368.58604   -518.58479    18474.388    7767.8938    26242.282   0.97513831 
  192500    362.61534   -358.31555    18175.122    7556.8604    25731.983   0.97513831 
  192600    362.85606   -357.78927    18187.188     7735.097    25922.285   0.97513831 
  192700    365.84034   -339.82795    18336.767    7840.5491    26177.316   0.97513831 
  192800     361.7635    -496.4057    18132.426     7826.999    25959.425   0.97513831 
  192900     362.1237   -627.68285     18150.48    7768.5591    25919.039   0.97513831 
  193000    362.03577   -452.07023    18146.073    7641.5785    25787.652   0.97513831 
  193100    362.54301   -349.52539    18171.497    7748.7327     25920.23   0.97513831 
  193200    371.09955   -214.43254    18600.371    7610.8094     26211.18   0.97513831 
  193300    366.13648  -0.44387066     18351.61      7805.32     26156.93   0.97513831 
  193400    362.50574   -345.40754    18169.629    7756.4363    25926.065   0.97513831 
  193500    362.57814   -541.15844    18173.258    7827.2864    26000.544   0.97513831 
  193600    364.93332   -490.70744    18291.305    7640.2401    25931.545   0.97513831 
  193700      361.543   -466.78953    18121.374    7836.1525    25957.527   0.97513831 
  193800    368.73286   -364.21617    18481.747     8048.102    26529.849   0.97513831 
  193900    367.54787   -427.39229    18422.352    7956.2574     26378.61   0.97513831 
  194000    366.82883   -522.46596    18386.312    8049.1107    26435.423   0.97513831 
  194100    365.65899   -387.93313    18327.677    7937.2962    26264.973   0.97513831 
  194200    361.98856   -655.40737    18143.707     7773.103     25916.81   0.97513831 
  194300    364.90797   -624.11584    18290.035    7758.8105    26048.845   0.97513831 
  194400    364.70321   -576.20966    18279.772    7897.9532    26177.725   0.97513831 
  194500    366.17311   -774.85752    18353.446    7851.8728    26205.319   0.97513831 
  194600    365.32061   -613.37386    18310.717    7831.4856    26142.203   0.97513831 
  194700    367.29628   -516.75523    18409.742    7656.1811    26065.923   0.97513831 
  194800    369.09862   -644.64429     18500.08    7577.9417    26078.021   0.97513831 
  194900    369.40229   -450.11055      18515.3     7708.106    26223.406   0.97513831 
  195000    364.69564   -276.89053    18279.392    7986.8318    26266.223   0.97513831 
  195100    365.13239    -300.1089    18301.283    8032.0811    26333.364   0.97513831 
  195200    368.68314   -502.71234    18479.254    7837.6379    26316.892   0.97513831 
  195300    370.25895   -589.11083    18558.238    7785.1354    26343.373   0.97513831 
  195400    368.25956   -595.80106    18458.024    8014.0271    26472.051   0.97513831 
  195500     363.9824   -600.31598    18243.643    8084.3908    26328.034   0.97513831 
  195600    364.88074    -756.1488     18288.67    8072.7163    26361.386   0.97513831 
  195700    366.62361   -611.35754    18376.026    8120.5155    26496.542   0.97513831 
  195800    369.90483   -599.88718    18540.489    7889.3165    26429.805   0.97513831 
  195900    366.08338   -677.77239    18348.949    8060.6516    26409.601   0.97513831 
  196000    362.28338    -471.8561    18158.484    7955.8531    26114.337   0.97513831 
  196100    364.47211   -534.53556    18268.188    8166.9901    26435.178   0.97513831 
  196200    367.08885   -480.91421    18399.345    8015.5214    26414.866   0.97513831 
  196300    365.21644   -545.40689    18305.496    7910.2855    26215.781   0.97513831 
  196400    363.74353   -594.59978     18231.67    7952.1276    26183.798   0.97513831 
  196500    364.96602   -439.14832    18292.944    7761.4037    26054.348   0.97513831 
  196600    360.47995   -319.86032    18068.092    7914.7125    25982.804   0.97513831 
  196700    368.25675   -175.23972    18457.883    7786.8879    26244.771   0.97513831 
  196800    368.41239   -147.41039    18465.684    8167.7539    26633.438   0.97513831 
  196900     365.8318   -407.17233    18336.339    7950.5808     26286.92   0.97513831 
  197000    368.34713   -376.26691    18462.413    7885.9311    26348.344   0.97513831 
  197100    370.39429   -284.12009    18565.021    8104.7864    26669.808   0.97513831 
  197200    371.22693    -245.7915    18606.756    8002.0734    26608.829   0.97513831 
  197300    373.07439    -444.8326    18699.354    8234.6633    26934.018   0.97513831 
  197400    374.92898   -372.37941    18792.311    8096.5059    26888.816   0.97513831 
  197500    369.24593    -485.1286    18507.463    8269.7201    26777.183   0.97513831 
  197600    374.94598   -376.73396    18793.163    8060.4617    26853.624   0.97513831 
  197700    371.41705   -467.40812    18616.285    8217.4255     26833.71   0.97513831 
  197800    369.61295   -780.93973    18525.859    8076.3952    26602.254   0.97513831 
  197900    369.00268   -532.11078    18495.271    8052.2498    26547.521   0.97513831 
  198000    364.62357   -416.74707     18275.78    8066.9782    26342.758   0.97513831 
  198100    373.89692   -620.86931    18740.582    7917.7535    26658.335   0.97513831 
  198200    372.22579   -365.80865     18656.82    7997.8701    26654.691   0.97513831 
  198300    369.67124   -492.65606    18528.781    8054.6457    26583.426   0.97513831 
  198400     373.9443   -356.13499    18742.956     7903.066    26646.022   0.97513831 
  198500    372.85936   -425.38068    18688.576    8108.7131     26797.29   0.97513831 
  198600    370.37114   -487.03861    18563.861    8106.2817    26670.143   0.97513831 
  198700    369.68023   -341.06278    18529.231     8109.412    26638.643   0.97513831 
  198800     372.8375   -387.98895    18687.481      8142.99    26830.471   0.97513831 
  198900    371.55587   -589.56342    18623.242    8035.1703    26658.413   0.97513831 
  199000    374.48346   -695.33302     18769.98    8120.0139    26889.994   0.97513831 
  199100    372.17014   -343.43775    18654.031    7824.6504    26478.682   0.97513831 
  199200    368.64201   -93.765257    18477.193    7998.9316    26476.125   0.97513831 
  199300     371.7584   -411.41129    18633.394    8018.0801    26651.474   0.97513831 
  199400    373.27332   -373.64551    18709.325    8058.5211    26767.847   0.97513831 
  199500    372.16243   -297.65859    18653.645    8169.8678    26823.513   0.97513831 
  199600    377.12032   -478.40239    18902.146    7988.2053    26890.351   0.97513831 
  199700    372.01379   -157.28014    18646.195    7969.7279    26615.922   0.97513831 
  199800    369.52993   -340.22797    18521.698    8181.3826    26703.081   0.97513831 
  199900    371.88858   -480.84345    18639.919    7920.1218    26560.041   0.97513831 
  200000     370.0419   -686.06781    18547.359    8047.5509     26594.91   0.97513831 
  200100    374.35665    -640.1953    18763.624    7961.5808    26725.205   0.97513831 
Loop time of 3036.65 on 12 procs for 100000 steps with 16816 atoms

Performance: 2.845 ns/day, 8.435 hours/ns, 32.931 timesteps/s
98.6% CPU use with 12 MPI tasks x 1 OpenMP threads

MPI task timing breakdown:
Section |  min time  |  avg time  |  max time  |%varavg| %total
---------------------------------------------------------------
Pair    | 1639.3     | 1989.6     | 2280.1     | 480.8 | 65.52
Bond    | 66.664     | 79.054     | 85.127     |  69.8 |  2.60
Kspace  | 612.6      | 873.63     | 1179.3     | 644.4 | 28.77
Neigh   | 10.215     | 10.217     | 10.217     |   0.0 |  0.34
Comm    | 29.729     | 64.891     | 121.88     | 385.9 |  2.14
Output  | 0.069552   | 0.088056   | 0.18825    |  10.2 |  0.00
Modify  | 11.445     | 12.002     | 12.555     |   9.9 |  0.40
Other   |            | 7.191      |            |       |  0.24

Nlocal:    1401.33 ave 1492 max 1294 min
Histogram: 1 2 0 3 0 0 1 1 2 2
Nghost:    11235.7 ave 11400 max 11128 min
Histogram: 3 1 2 1 1 1 0 1 1 1
Neighs:    2.18319e+06 ave 2.36882e+06 max 1.97371e+06 min
Histogram: 2 2 0 2 0 0 0 1 3 2

Total # of neighbors = 26198320
Ave neighs/atom = 1557.94
Ave special neighs/atom = 8.82969
Neighbor list builds = 162
Dangerous builds = 0
System init for write_restart ...
Ewald initialization ...
WARNING: Using 12-bit tables for long-range coulomb (../kspace.cpp:321)
  G vector (1/distance) = 0.143832
  estimated absolute RMS force accuracy = 0.040371
  estimated relative force accuracy = 0.000121576
  KSpace vectors: actual max1d max3d = 769 8 2456
                  kxmax kymax kzmax  = 7 6 8
Total wall time: 1:44:03
