
                                 *****************
                                 * O   R   C   A *
                                 *****************

           --- An Ab Initio, DFT and Semiempirical electronic structure package ---

                  #######################################################
                  #                        -***-                        #
                  #  Department of molecular theory and spectroscopy    #
                  #              Directorship: Frank Neese              #
                  # Max Planck Institute for Chemical Energy Conversion #
                  #                  D-45470 Muelheim/Ruhr              #
                  #                       Germany                       #
                  #                                                     #
                  #                  All rights reserved                #
                  #                        -***-                        #
                  #######################################################


                         Program Version 4.0.1.2 - RELEASE -


 With contributions from (in alphabetic order):
   Daniel Aravena         : Magnetic Properties
   Michael Atanasov       : Ab Initio Ligand Field Theory
   Ute Becker             : Parallelization
   Martin Brehm           : Molecular dynamics
   Dmytro Bykov           : SCF Hessian
   Vijay G. Chilkuri      : MRCI spin determinant printing
   Dipayan Datta          : RHF DLPNO-CCSD density
   Achintya Kumar Dutta   : EOM-CC, STEOM-CC
   Dmitry Ganyushin       : Spin-Orbit,Spin-Spin,Magnetic field MRCI
   Yang Guo               : DLPNO-NEVPT2, CIM, IAO-localization
   Andreas Hansen         : Spin unrestricted coupled pair/coupled cluster methods
   Lee Huntington         : MR-EOM, pCC
   Robert Izsak           : Overlap fitted RIJCOSX, COSX-SCS-MP3, EOM
   Christian Kollmar      : KDIIS, OOCD, Brueckner-CCSD(T), CCSD density
   Simone Kossmann        : Meta GGA functionals, TD-DFT gradient, OOMP2, MP2 Hessian
   Martin Krupicka        : AUTO-CI
   Dagmar Lenk            : GEPOL surface
   Dimitrios Liakos       : Extrapolation schemes; parallel MDCI
   Dimitrios Manganas     : ROCIS; embedding schemes
   Dimitrios Pantazis     : SARC Basis sets
   Taras Petrenko         : DFT Hessian,TD-DFT gradient, ASA, ECA, R-Raman, ABS, FL, XAS/XES, NRVS
   Peter Pinski           : DLPNO-MP2
   Christoph Reimann      : Effective Core Potentials
   Marius Retegan         : Local ZFS, SOC
   Christoph Riplinger    : Optimizer, TS searches, QM/MM, DLPNO-CCSD(T), (RO)-DLPNO pert. Triples
   Tobias Risthaus        : Range-separated hybrids, TD-DFT gradient, RPA, STAB
   Michael Roemelt        : Restricted open shell CIS
   Masaaki Saitow         : Open-shell DLPNO
   Barbara Sandhoefer     : DKH picture change effects
   Kantharuban Sivalingam : CASSCF convergence, NEVPT2, FIC-MRCI
   Georgi Stoychev        : AutoAux
   Boris Wezisla          : Elementary symmetry handling
   Frank Wennmohs         : Technical directorship


 We gratefully acknowledge several colleagues who have allowed us to
 interface, adapt or use parts of their codes:
   Stefan Grimme, W. Hujo, H. Kruse,             : VdW corrections, initial TS optimization,
                  C. Bannwarth                     DFT functionals, gCP, sTDA/sTD-DF
   Ed Valeev                                     : LibInt (2-el integral package), F12 methods
   Garnet Chan, S. Sharma, J. Yang, R. Olivares  : DMRG
   Ulf Ekstrom                                   : XCFun DFT Library
   Mihaly Kallay                                 : mrcc  (arbitrary order and MRCC methods)
   Andreas Klamt, Michael Diedenhofen            : otool_cosmo (COSMO solvation model)
   Jiri Pittner, Ondrej Demel                    : Mk-CCSD
   Frank Weinhold                                : gennbo (NPA and NBO analysis)
   Christopher J. Cramer and Donald G. Truhlar   : smd solvation model


 Your calculation uses the libint2 library for the computation of 2-el integrals
 For citations please refer to: http://libint.valeyev.net

 This ORCA versions uses:
   CBLAS   interface :  Fast vector & matrix operations
   LAPACKE interface :  Fast linear algebra routines
   SCALAPACK package :  Parallel linear algebra routines


Your calculation utilizes the basis: 6-31+G**
   H-He, Li-Ne : W. J. Hehre, R. Ditchfield and J.A. Pople, J. Chem. Phys. 56, 2257 (1972).
                 Note: He and Ne are unpublished basis sets taken from the Gaussian program.
                 Note: Li and B from J. D. Dill and J. A. Pople, J. Chem. Phys. 62, 2921 (1975).
   Na - Ar     : M. M. Francl, W. J. Pietro, W. J. Hehre, J. S. Binkley, M. S. Gordon, 
                 D. J. DeFrees and J. A. Pople, J. Chem. Phys. 77, 3654 (1982).
   K - Zn      : V. A. Rassolov, J. A. Pople, M. A. Ratner, and T. L. Windus, J. Chem. Phys. 109, 1223 (1998).
   Additional Pol./Diff. from the 6-311G equivalent.

================================================================================
                                        WARNINGS
                       Please study these warnings very carefully!
================================================================================

Warning: TCutStore was < 0. Adjusted to Thresh (uncritical)

WARNING: Geometry Optimization
  ===> : Switching off AutoStart
         For restart on a previous wavefunction, please use MOREAD

INFO   : the flag for use of LIBINT has been found!

================================================================================
                                       INPUT FILE
================================================================================
NAME = OEG4.inp
|  1> ! RKS B3LYP 6-31+G** NormalSCF Opt NOSOSCF CHELPG
|  2> 
|  3> *xyz 0 1
|  4> S -1.64421 -2.78705 0.98863
|  5> C -1.64421 -0.94894 0.98863
|  6> C -0.42654 -0.42099 0.22365
|  7> O -0.44848 1.01652 0.23661
|  8> C 0.67098 1.54804 -0.46562
|  9> C 0.60667 3.06994 -0.42731
| 10> O 1.72604 3.61595 -1.12903
| 11> C 1.70454 5.04145 -1.11540
| 12> C 2.91751 5.56478 -1.87606
| 13> O 2.90691 6.99277 -1.86935
| 14> C 4.02995 7.52388 -2.57212
| 15> C 3.96763 9.04632 -2.53449
| 16> O 5.08671 9.58990 -3.23454
| 17> C 5.06399 11.01090 -3.22187
| 18> H -1.62568 -0.52742 2.00162
| 19> H -2.54880 -0.52739 0.53241
| 20> H -0.44388 -0.76320 -0.81906
| 21> H 0.50524 -0.76247 0.69249
| 22> H 0.66429 1.20348 -1.50661
| 23> H 1.60521 1.20551 -0.00486
| 24> H 0.61249 3.41578 0.61340
| 25> H -0.32743 3.41392 -0.88779
| 26> H 1.72592 5.40991 -0.08276
| 27> H 0.78426 5.41011 -1.58411
| 28> H 2.89597 5.19430 -2.90810
| 29> H 3.83715 5.19406 -1.40744
| 30> H 4.02237 7.17688 -3.61239
| 31> H 4.96214 7.17815 -2.10956
| 32> H 3.97252 9.39151 -1.49344
| 33> H 3.03363 9.39009 -2.99533
| 34> H 5.93821 11.37418 -3.76860
| 35> H 5.11336 11.38586 -2.19496
| 36> H 4.16228 11.38414 -3.71691
| 37> **                         ****END OF INPUT****
================================================================================

                       *****************************
                       * Geometry Optimization Run *
                       *****************************

Geometry optimization settings:
Update method            Update   .... BFGS
Choice of coordinates    CoordSys .... Redundant Internals
Initial Hessian          InHess   .... Almoef's Model

Convergence Tolerances:
Energy Change            TolE     ....  5.0000e-06 Eh
Max. Gradient            TolMAXG  ....  3.0000e-04 Eh/bohr
RMS Gradient             TolRMSG  ....  1.0000e-04 Eh/bohr
Max. Displacement        TolMAXD  ....  4.0000e-03 bohr
RMS Displacement         TolRMSD  ....  2.0000e-03 bohr

------------------------------------------------------------------------------
                        ORCA OPTIMIZATION COORDINATE SETUP
------------------------------------------------------------------------------

The optimization will be done in new redundant internal coordinates
Making redundant internal coordinates   ...  (new redundants) done
Evaluating the initial hessian          ...  (Almloef) done
Evaluating the coordinates              ...  done
Calculating the B-matrix                .... done
Calculating the G-matrix                .... done
Diagonalizing the G-matrix              .... done
Small eigenvalue found = 1.140e-03
Small eigenvalue found = 5.115e-03
Small eigenvalue found = 7.303e-03
Small eigenvalue found = 1.663e-02
Small eigenvalue found = 2.202e-02
Small eigenvalue found = 2.592e-02
The first mode is                       ....   57
The number of degrees of freedom        ....   93

    -----------------------------------------------------------------
                    Redundant Internal Coordinates


    -----------------------------------------------------------------
         Definition                    Initial Value    Approx d2E/dq
    -----------------------------------------------------------------
      1. B(C   1,S   0)                  1.8381         0.324770   
      2. B(C   2,C   1)                  1.5319         0.371008   
      3. B(O   3,C   2)                  1.4377         0.469587   
      4. B(C   4,O   3)                  1.4244         0.493219   
      5. B(C   5,C   4)                  1.5237         0.382266   
      6. B(O   6,C   5)                  1.4295         0.483976   
      7. B(C   7,O   6)                  1.4257         0.490766   
      8. B(C   8,C   7)                  1.5244         0.381349   
      9. B(O   9,C   8)                  1.4280         0.486605   
     10. B(C  10,O   9)                  1.4273         0.487941   
     11. B(C  11,C  10)                  1.5242         0.381649   
     12. B(O  12,C  11)                  1.4275         0.487497   
     13. B(C  13,O  12)                  1.4212         0.498927   
     14. B(H  14,C   1)                  1.0973         0.350510   
     15. B(H  15,C   1)                  1.0973         0.350538   
     16. B(H  16,C   2)                  1.0976         0.350228   
     17. B(H  17,C   2)                  1.0976         0.350239   
     18. B(H  18,C   4)                  1.0966         0.351536   
     19. B(H  19,C   4)                  1.0965         0.351544   
     20. B(H  20,C   5)                  1.0967         0.351365   
     21. B(H  21,C   5)                  1.0968         0.351253   
     22. B(H  22,C   7)                  1.0966         0.351454   
     23. B(H  23,C   7)                  1.0966         0.351484   
     24. B(H  24,C   8)                  1.0967         0.351301   
     25. B(H  25,C   8)                  1.0967         0.351330   
     26. B(H  26,C  10)                  1.0966         0.351417   
     27. B(H  27,C  10)                  1.0966         0.351511   
     28. B(H  28,C  11)                  1.0968         0.351219   
     29. B(H  29,C  11)                  1.0968         0.351253   
     30. B(H  30,C  13)                  1.0932         0.355855   
     31. B(H  31,C  13)                  1.0943         0.354406   
     32. B(H  32,C  13)                  1.0943         0.354479   
     33. A(H  14,C   1,H  15)          104.4863         0.288392   
     34. A(S   0,C   1,H  14)          112.5895         0.331498   
     35. A(C   2,C   1,H  15)          108.3763         0.322525   
     36. A(S   0,C   1,H  15)          112.5917         0.331502   
     37. A(C   2,C   1,H  14)          108.3715         0.322521   
     38. A(S   0,C   1,C   2)          110.1600         0.373010   
     39. A(O   3,C   2,H  16)          108.6668         0.333242   
     40. A(C   1,C   2,H  17)          110.7495         0.322480   
     41. A(H  16,C   2,H  17)          108.7974         0.288317   
     42. A(O   3,C   2,H  17)          108.6740         0.333244   
     43. A(C   1,C   2,H  16)          110.7568         0.322478   
     44. A(C   1,C   2,O   3)          109.1448         0.375105   
     45. A(C   2,O   3,C   4)          110.8955         0.391639   
     46. A(C   5,C   4,H  19)          109.7178         0.324263   
     47. A(C   5,C   4,H  18)          109.7217         0.324262   
     48. A(H  18,C   4,H  19)          107.8150         0.288653   
     49. A(O   3,C   4,H  18)          110.2416         0.336180   
     50. A(O   3,C   4,H  19)          110.2350         0.336181   
     51. A(O   3,C   4,C   5)          109.0956         0.380266   
     52. A(C   4,C   5,H  21)          109.7941         0.324219   
     53. A(C   4,C   5,H  20)          109.7919         0.324236   
     54. A(O   6,C   5,H  20)          109.9512         0.335096   
     55. A(C   4,C   5,O   6)          109.6396         0.379022   
     56. A(O   6,C   5,H  21)          109.9386         0.335079   
     57. A(H  20,C   5,H  21)          107.7003         0.288594   
     58. A(C   5,O   6,C   7)          111.4317         0.393370   
     59. A(O   6,C   7,C   8)          109.0552         0.379780   
     60. A(H  22,C   7,H  23)          107.8119         0.288635   
     61. A(C   8,C   7,H  23)          109.8206         0.324126   
     62. A(O   6,C   7,H  23)          110.1636         0.335893   
     63. A(C   8,C   7,H  22)          109.8171         0.324122   
     64. A(O   6,C   7,H  22)          110.1606         0.335888   
     65. A(H  24,C   8,H  25)          107.7204         0.288595   
     66. A(O   9,C   8,H  25)          110.0129         0.335393   
     67. A(C   7,C   8,H  25)          109.7533         0.324103   
     68. A(O   9,C   8,H  24)          110.0028         0.335388   
     69. A(C   7,C   8,H  24)          109.7527         0.324098   
     70. A(C   7,C   8,O   9)          109.5749         0.379220   
     71. A(C   8,O   9,C  10)          111.3424         0.393345   
     72. A(H  26,C  10,H  27)          107.8336         0.288634   
     73. A(C  11,C  10,H  27)          109.8322         0.324172   
     74. A(O   9,C  10,H  27)          110.1124         0.335574   
     75. A(C  11,C  10,H  26)          109.8279         0.324158   
     76. A(O   9,C  10,H  26)          110.1138         0.335560   
     77. A(O   9,C  10,C  11)          109.1084         0.379451   
     78. A(H  28,C  11,H  29)          107.6963         0.288575   
     79. A(O  12,C  11,H  29)          110.0095         0.335483   
     80. A(C  10,C  11,H  29)          109.7262         0.324133   
     81. A(O  12,C  11,H  28)          110.0064         0.335477   
     82. A(C  10,C  11,H  28)          109.7318         0.324128   
     83. A(C  10,C  11,O  12)          109.6446         0.379392   
     84. A(C  11,O  12,C  13)          111.3345         0.395010   
     85. A(H  31,C  13,H  32)          110.1709         0.289398   
     86. A(H  30,C  13,H  32)          108.6242         0.289583   
     87. A(O  12,C  13,H  32)          110.4974         0.337292   
     88. A(H  30,C  13,H  31)          108.6241         0.289574   
     89. A(O  12,C  13,H  31)          110.5010         0.337281   
     90. A(O  12,C  13,H  30)          108.3610         0.337510   
     91. D(H  16,C   2,C   1,S   0)     60.3739         0.011000   
     92. D(H  17,C   2,C   1,H  14)     63.1515         0.011000   
     93. D(O   3,C   2,C   1,H  14)    -56.4496         0.011000   
     94. D(H  16,C   2,C   1,H  14)   -176.0462         0.011000   
     95. D(O   3,C   2,C   1,S   0)    179.9706         0.011000   
     96. D(H  17,C   2,C   1,S   0)    -60.4283         0.011000   
     97. D(H  16,C   2,C   1,H  15)    -63.2118         0.011000   
     98. D(O   3,C   2,C   1,H  15)     56.3849         0.011000   
     99. D(H  17,C   2,C   1,H  15)    175.9860         0.011000   
    100. D(C   4,O   3,C   2,H  16)    -59.1579         0.017381   
    101. D(C   4,O   3,C   2,H  17)     59.0839         0.017381   
    102. D(C   4,O   3,C   2,C   1)    179.9607         0.017381   
    103. D(H  19,C   4,O   3,C   2)    -59.4998         0.019216   
    104. D(H  18,C   4,O   3,C   2)     59.4120         0.019216   
    105. D(C   5,C   4,O   3,C   2)    179.9605         0.019216   
    106. D(H  21,C   5,C   4,H  19)   -179.9928         0.011639   
    107. D(H  21,C   5,C   4,O   3)    -59.1365         0.011639   
    108. D(H  20,C   5,C   4,H  19)    -61.7680         0.011639   
    109. D(H  20,C   5,C   4,H  18)    179.9551         0.011639   
    110. D(O   6,C   5,C   4,H  19)     59.1267         0.011639   
    111. D(O   6,C   5,C   4,H  18)    -59.1502         0.011639   
    112. D(H  21,C   5,C   4,H  18)     61.7303         0.011639   
    113. D(O   6,C   5,C   4,O   3)    179.9830         0.011639   
    114. D(H  20,C   5,C   4,O   3)     59.0883         0.011639   
    115. D(C   7,O   6,C   5,C   4)   -179.9266         0.018485   
    116. D(C   7,O   6,C   5,H  20)    -59.1283         0.018485   
    117. D(C   7,O   6,C   5,H  21)     59.2803         0.018485   
    118. D(H  23,C   7,O   6,C   5)    -59.3948         0.019020   
    119. D(H  22,C   7,O   6,C   5)     59.4182         0.019020   
    120. D(C   8,C   7,O   6,C   5)   -179.9914         0.019020   
    121. D(O   9,C   8,C   7,O   6)    179.9970         0.011586   
    122. D(H  25,C   8,C   7,H  22)     61.7037         0.011586   
    123. D(H  25,C   8,C   7,O   6)    -59.0972         0.011586   
    124. D(H  24,C   8,C   7,H  23)    -61.7027         0.011586   
    125. D(H  24,C   8,C   7,H  22)    179.9049         0.011586   
    126. D(H  24,C   8,C   7,O   6)     59.1041         0.011586   
    127. D(O   9,C   8,C   7,H  23)     59.1902         0.011586   
    128. D(H  25,C   8,C   7,H  23)   -179.9040         0.011586   
    129. D(O   9,C   8,C   7,H  22)    -59.2022         0.011586   
    130. D(C  10,O   9,C   8,H  25)     59.1970         0.018691   
    131. D(C  10,O   9,C   8,H  24)    -59.3132         0.018691   
    132. D(C  10,O   9,C   8,C   7)    179.9455         0.018691   
    133. D(H  27,C  10,O   9,C   8)    -59.4362         0.018796   
    134. D(H  26,C  10,O   9,C   8)     59.3428         0.018796   
    135. D(C  11,C  10,O   9,C   8)    179.9511         0.018796   
    136. D(H  29,C  11,C  10,H  27)   -179.8649         0.011604   
    137. D(H  29,C  11,C  10,H  26)     61.7026         0.011604   
    138. D(H  29,C  11,C  10,O   9)    -59.0806         0.011604   
    139. D(H  28,C  11,C  10,H  27)    -61.7217         0.011604   
    140. D(H  28,C  11,C  10,H  26)    179.8458         0.011604   
    141. D(H  28,C  11,C  10,O   9)     59.0626         0.011604   
    142. D(O  12,C  11,C  10,H  27)     59.2065         0.011604   
    143. D(O  12,C  11,C  10,H  26)    -59.2260         0.011604   
    144. D(O  12,C  11,C  10,O   9)    179.9908         0.011604   
    145. D(C  13,O  12,C  11,H  29)     59.2321         0.018761   
    146. D(C  13,O  12,C  11,H  28)    -59.2487         0.018761   
    147. D(C  13,O  12,C  11,C  10)    179.9892         0.018761   
    148. D(H  32,C  13,O  12,C  11)    -61.1020         0.019677   
    149. D(H  31,C  13,O  12,C  11)     61.0926         0.019677   
    150. D(H  30,C  13,O  12,C  11)    179.9963         0.019677   
    -----------------------------------------------------------------

Number of atoms                         .... 33
Number of degrees of freedom            .... 150

         *************************************************************
         *                GEOMETRY OPTIMIZATION CYCLE   1            *
         *************************************************************
---------------------------------
CARTESIAN COORDINATES (ANGSTROEM)
---------------------------------
  S     -1.644210   -2.787050    0.988630
  C     -1.644210   -0.948940    0.988630
  C     -0.426540   -0.420990    0.223650
  O     -0.448480    1.016520    0.236610
  C      0.670980    1.548040   -0.465620
  C      0.606670    3.069940   -0.427310
  O      1.726040    3.615950   -1.129030
  C      1.704540    5.041450   -1.115400
  C      2.917510    5.564780   -1.876060
  O      2.906910    6.992770   -1.869350
  C      4.029950    7.523880   -2.572120
  C      3.967630    9.046320   -2.534490
  O      5.086710    9.589900   -3.234540
  C      5.063990   11.010900   -3.221870
  H     -1.625680   -0.527420    2.001620
  H     -2.548800   -0.527390    0.532410
  H     -0.443880   -0.763200   -0.819060
  H      0.505240   -0.762470    0.692490
  H      0.664290    1.203480   -1.506610
  H      1.605210    1.205510   -0.004860
  H      0.612490    3.415780    0.613400
  H     -0.327430    3.413920   -0.887790
  H      1.725920    5.409910   -0.082760
  H      0.784260    5.410110   -1.584110
  H      2.895970    5.194300   -2.908100
  H      3.837150    5.194060   -1.407440
  H      4.022370    7.176880   -3.612390
  H      4.962140    7.178150   -2.109560
  H      3.972520    9.391510   -1.493440
  H      3.033630    9.390090   -2.995330
  H      5.938210   11.374180   -3.768600
  H      5.113360   11.385860   -2.194960
  H      4.162280   11.384140   -3.716910

----------------------------
CARTESIAN COORDINATES (A.U.)
----------------------------
  NO LB      ZA    FRAG     MASS         X           Y           Z
   0 S    16.0000    0    32.060   -3.107107   -5.266761    1.868240
   1 C     6.0000    0    12.011   -3.107107   -1.793237    1.868240
   2 C     6.0000    0    12.011   -0.806044   -0.795556    0.422637
   3 O     8.0000    0    15.999   -0.847504    1.920944    0.447128
   4 C     6.0000    0    12.011    1.267968    2.925372   -0.879894
   5 C     6.0000    0    12.011    1.146440    5.801346   -0.807499
   6 O     8.0000    0    15.999    3.261743    6.833155   -2.133557
   7 C     6.0000    0    12.011    3.221114    9.526960   -2.107801
   8 C     6.0000    0    12.011    5.513295   10.515910   -3.545240
   9 O     8.0000    0    15.999    5.493264   13.214420   -3.532560
  10 C     6.0000    0    12.011    7.615502   14.218073   -4.860602
  11 C     6.0000    0    12.011    7.497734   17.095067   -4.789492
  12 O     8.0000    0    15.999    9.612489   18.122285   -6.112395
  13 C     6.0000    0    12.011    9.569554   20.807585   -6.088452
  14 H     1.0000    0     1.008   -3.072090   -0.996679    3.782514
  15 H     1.0000    0     1.008   -4.816534   -0.996623    1.006109
  16 H     1.0000    0     1.008   -0.838812   -1.442239   -1.547799
  17 H     1.0000    0     1.008    0.954765   -1.440859    1.308616
  18 H     1.0000    0     1.008    1.255326    2.274248   -2.847080
  19 H     1.0000    0     1.008    3.033407    2.278084   -0.009184
  20 H     1.0000    0     1.008    1.157438    6.454889    1.159158
  21 H     1.0000    0     1.008   -0.618753    6.451374   -1.677680
  22 H     1.0000    0     1.008    3.261516   10.223248   -0.156394
  23 H     1.0000    0     1.008    1.482037   10.223626   -2.993534
  24 H     1.0000    0     1.008    5.472590    9.815804   -5.495513
  25 H     1.0000    0     1.008    7.251163    9.815351   -2.659676
  26 H     1.0000    0     1.008    7.601178   13.562338   -6.826428
  27 H     1.0000    0     1.008    9.377086   13.564738   -3.986491
  28 H     1.0000    0     1.008    7.506975   17.747382   -2.822193
  29 H     1.0000    0     1.008    5.732730   17.744698   -5.660353
  30 H     1.0000    0     1.008   11.221591   21.494085   -7.121622
  31 H     1.0000    0     1.008    9.662850   21.516157   -4.147873
  32 H     1.0000    0     1.008    7.865569   21.512907   -7.023942

--------------------------------
INTERNAL COORDINATES (ANGSTROEM)
--------------------------------
 S      0   0   0     0.000000000000     0.00000000     0.00000000
 C      1   0   0     1.838110000000     0.00000000     0.00000000
 C      2   1   0     1.531876571986   110.15998328     0.00000000
 O      3   2   1     1.437735832933   109.14482023   179.97058699
 C      4   3   2     1.424370448619   110.89553693   179.96070938
 C      5   4   3     1.523739821032   109.09557153   179.96054022
 O      6   5   4     1.429519875832   109.63956857   179.98295937
 C      7   6   5     1.425727279987   111.43167634   180.07338654
 C      8   7   6     1.524393041640   109.05523202   180.00862571
 O      9   8   7     1.428045105800   109.57494918   179.99695797
 C     10   9   8     1.427298968892   111.34237009   179.94550968
 C     11  10   9     1.524179567144   109.10837829   179.95105170
 O     12  11  10     1.427546589537   109.64461640   179.99080141
 C     13  12  11     1.421238096626   111.33448487   179.98924066
 H      2   1   3     1.097347352209   112.58951184   238.90958149
 H      2   1   3     1.097325912844   112.59167417   121.09803198
 H      3   2   1     1.097566628410   110.75676503    60.37391150
 H      3   2   1     1.097557973139   110.74945958   299.57168862
 H      5   4   3     1.096552109934   110.24162092    59.41198636
 H      5   4   3     1.096545608445   110.23499742   300.50015899
 H      6   5   4     1.096684312872   109.79188451    59.08828083
 H      6   5   4     1.096771115958   109.79407607   300.86347325
 H      8   7   6     1.096615359002   110.16056778    59.41820920
 H      8   7   6     1.096592238756   110.16364216   300.60523889
 H      9   8   7     1.096734226511   109.75267452    59.10407600
 H      9   8   7     1.096711335038   109.75330315   300.90278321
 H     11  10   9     1.096644030349   110.11376862    59.34280536
 H     11  10   9     1.096571558358   110.11242530   300.56380575
 H     12  11  10     1.096797679930   109.73179459    59.06255182
 H     12  11  10     1.096771315498   109.72623109   300.91937506
 H     14  13  12     1.093227633981   108.36098679   179.99627057
 H     14  13  12     1.094338405887   110.50096272    61.09260894
 H     14  13  12     1.094282241152   110.49739410   298.89795863

---------------------------
INTERNAL COORDINATES (A.U.)
---------------------------
 S      0   0   0     0.000000000000     0.00000000     0.00000000
 C      1   0   0     3.473524504022     0.00000000     0.00000000
 C      2   1   0     2.894827192024   110.15998328     0.00000000
 O      3   2   1     2.716926977169   109.14482023   179.97058699
 C      4   3   2     2.691670061141   110.89553693   179.96070938
 C      5   4   3     2.879450961102   109.09557153   179.96054022
 O      6   5   4     2.701401068320   109.63956857   179.98295937
 C      7   6   5     2.694234100836   111.43167634   180.07338654
 C      8   7   6     2.880685369155   109.05523202   180.00862571
 O      9   8   7     2.698614156849   109.57494918   179.99695797
 C     10   9   8     2.697204162434   111.34237009   179.94550968
 C     11  10   9     2.880281960821   109.10837829   179.95105170
 O     12  11  10     2.697672097639   109.64461640   179.99080141
 C     13  12  11     2.685750773718   111.33448487   179.98924066
 H      2   1   3     2.073685969459   112.58951184   238.90958149
 H      2   1   3     2.073645454931   112.59167417   121.09803198
 H      3   2   1     2.074100341427   110.75676503    60.37391150
 H      3   2   1     2.074083985334   110.74945958   299.57168862
 H      5   4   3     2.072183179348   110.24162092    59.41198636
 H      5   4   3     2.072170893315   110.23499742   300.50015899
 H      6   5   4     2.072433006696   109.79188451    59.08828083
 H      6   5   4     2.072597040756   109.79407607   300.86347325
 H      8   7   6     2.072302702766   110.16056778    59.41820920
 H      8   7   6     2.072259011833   110.16364216   300.60523889
 H      9   8   7     2.072527329803   109.75267452    59.10407600
 H      9   8   7     2.072484071188   109.75330315   300.90278321
 H     11  10   9     2.072356883759   110.11376862    59.34280536
 H     11  10   9     2.072219931544   110.11242530   300.56380575
 H     12  11  10     2.072647239388   109.73179459    59.06255182
 H     12  11  10     2.072597417832   109.72623109   300.91937506
 H     14  13  12     2.065900830259   108.36098679   179.99627057
 H     14  13  12     2.067999884959   110.50096272    61.09260894
 H     14  13  12     2.067893748990   110.49739410   298.89795863

---------------------
BASIS SET INFORMATION
---------------------
There are 4 groups of distinct atoms

 Group   1 Type S   : 17s11p1d contracted to 5s4p1d pattern {66311/6311/1}
 Group   2 Type C   : 11s5p1d contracted to 4s3p1d pattern {6311/311/1}
 Group   3 Type O   : 11s5p1d contracted to 4s3p1d pattern {6311/311/1}
 Group   4 Type H   : 4s1p contracted to 2s1p pattern {31/1}

Atom   0S    basis set group =>   1
Atom   1C    basis set group =>   2
Atom   2C    basis set group =>   2
Atom   3O    basis set group =>   3
Atom   4C    basis set group =>   2
Atom   5C    basis set group =>   2
Atom   6O    basis set group =>   3
Atom   7C    basis set group =>   2
Atom   8C    basis set group =>   2
Atom   9O    basis set group =>   3
Atom  10C    basis set group =>   2
Atom  11C    basis set group =>   2
Atom  12O    basis set group =>   3
Atom  13C    basis set group =>   2
Atom  14H    basis set group =>   4
Atom  15H    basis set group =>   4
Atom  16H    basis set group =>   4
Atom  17H    basis set group =>   4
Atom  18H    basis set group =>   4
Atom  19H    basis set group =>   4
Atom  20H    basis set group =>   4
Atom  21H    basis set group =>   4
Atom  22H    basis set group =>   4
Atom  23H    basis set group =>   4
Atom  24H    basis set group =>   4
Atom  25H    basis set group =>   4
Atom  26H    basis set group =>   4
Atom  27H    basis set group =>   4
Atom  28H    basis set group =>   4
Atom  29H    basis set group =>   4
Atom  30H    basis set group =>   4
Atom  31H    basis set group =>   4
Atom  32H    basis set group =>   4
[file orca_main/mainfcts.cpp, line 334]: Error : multiplicity (1) is odd and number of electrons (121) is odd -> impossible

