
                                 *****************
                                 * O   R   C   A *
                                 *****************

           --- An Ab Initio, DFT and Semiempirical electronic structure package ---

                  #######################################################
                  #                        -***-                        #
                  #  Department of molecular theory and spectroscopy    #
                  #              Directorship: Frank Neese              #
                  # Max Planck Institute for Chemical Energy Conversion #
                  #                  D-45470 Muelheim/Ruhr              #
                  #                       Germany                       #
                  #                                                     #
                  #                  All rights reserved                #
                  #                        -***-                        #
                  #######################################################


                         Program Version 4.0.1.2 - RELEASE -


 With contributions from (in alphabetic order):
   Daniel Aravena         : Magnetic Properties
   Michael Atanasov       : Ab Initio Ligand Field Theory
   Ute Becker             : Parallelization
   Martin Brehm           : Molecular dynamics
   Dmytro Bykov           : SCF Hessian
   Vijay G. Chilkuri      : MRCI spin determinant printing
   Dipayan Datta          : RHF DLPNO-CCSD density
   Achintya Kumar Dutta   : EOM-CC, STEOM-CC
   Dmitry Ganyushin       : Spin-Orbit,Spin-Spin,Magnetic field MRCI
   Yang Guo               : DLPNO-NEVPT2, CIM, IAO-localization
   Andreas Hansen         : Spin unrestricted coupled pair/coupled cluster methods
   Lee Huntington         : MR-EOM, pCC
   Robert Izsak           : Overlap fitted RIJCOSX, COSX-SCS-MP3, EOM
   Christian Kollmar      : KDIIS, OOCD, Brueckner-CCSD(T), CCSD density
   Simone Kossmann        : Meta GGA functionals, TD-DFT gradient, OOMP2, MP2 Hessian
   Martin Krupicka        : AUTO-CI
   Dagmar Lenk            : GEPOL surface
   Dimitrios Liakos       : Extrapolation schemes; parallel MDCI
   Dimitrios Manganas     : ROCIS; embedding schemes
   Dimitrios Pantazis     : SARC Basis sets
   Taras Petrenko         : DFT Hessian,TD-DFT gradient, ASA, ECA, R-Raman, ABS, FL, XAS/XES, NRVS
   Peter Pinski           : DLPNO-MP2
   Christoph Reimann      : Effective Core Potentials
   Marius Retegan         : Local ZFS, SOC
   Christoph Riplinger    : Optimizer, TS searches, QM/MM, DLPNO-CCSD(T), (RO)-DLPNO pert. Triples
   Tobias Risthaus        : Range-separated hybrids, TD-DFT gradient, RPA, STAB
   Michael Roemelt        : Restricted open shell CIS
   Masaaki Saitow         : Open-shell DLPNO
   Barbara Sandhoefer     : DKH picture change effects
   Kantharuban Sivalingam : CASSCF convergence, NEVPT2, FIC-MRCI
   Georgi Stoychev        : AutoAux
   Boris Wezisla          : Elementary symmetry handling
   Frank Wennmohs         : Technical directorship


 We gratefully acknowledge several colleagues who have allowed us to
 interface, adapt or use parts of their codes:
   Stefan Grimme, W. Hujo, H. Kruse,             : VdW corrections, initial TS optimization,
                  C. Bannwarth                     DFT functionals, gCP, sTDA/sTD-DF
   Ed Valeev                                     : LibInt (2-el integral package), F12 methods
   Garnet Chan, S. Sharma, J. Yang, R. Olivares  : DMRG
   Ulf Ekstrom                                   : XCFun DFT Library
   Mihaly Kallay                                 : mrcc  (arbitrary order and MRCC methods)
   Andreas Klamt, Michael Diedenhofen            : otool_cosmo (COSMO solvation model)
   Jiri Pittner, Ondrej Demel                    : Mk-CCSD
   Frank Weinhold                                : gennbo (NPA and NBO analysis)
   Christopher J. Cramer and Donald G. Truhlar   : smd solvation model


 Your calculation uses the libint2 library for the computation of 2-el integrals
 For citations please refer to: http://libint.valeyev.net

 This ORCA versions uses:
   CBLAS   interface :  Fast vector & matrix operations
   LAPACKE interface :  Fast linear algebra routines
   SCALAPACK package :  Parallel linear algebra routines


Your calculation utilizes the basis: 6-31+G**
   H-He, Li-Ne : W. J. Hehre, R. Ditchfield and J.A. Pople, J. Chem. Phys. 56, 2257 (1972).
                 Note: He and Ne are unpublished basis sets taken from the Gaussian program.
                 Note: Li and B from J. D. Dill and J. A. Pople, J. Chem. Phys. 62, 2921 (1975).
   Na - Ar     : M. M. Francl, W. J. Pietro, W. J. Hehre, J. S. Binkley, M. S. Gordon, 
                 D. J. DeFrees and J. A. Pople, J. Chem. Phys. 77, 3654 (1982).
   K - Zn      : V. A. Rassolov, J. A. Pople, M. A. Ratner, and T. L. Windus, J. Chem. Phys. 109, 1223 (1998).
   Additional Pol./Diff. from the 6-311G equivalent.

================================================================================
                                        WARNINGS
                       Please study these warnings very carefully!
================================================================================

Warning: TCutStore was < 0. Adjusted to Thresh (uncritical)

WARNING: Geometry Optimization
  ===> : Switching off AutoStart
         For restart on a previous wavefunction, please use MOREAD

INFO   : the flag for use of LIBINT has been found!

================================================================================
                                       INPUT FILE
================================================================================
NAME = OEG8.inp
|  1> ! RKS B3LYP 6-31+G** NormalSCF Opt NOSOSCF CHELPG
|  2> 
|  3> *xyz 0 1
|  4> S -5.67320 -3.55952 -1.96715
|  5> C -3.83626 -3.51447 -1.93819
|  6> C -3.35136 -2.23360 -1.25279
|  7> O -1.91450 -2.22230 -1.24351
|  8> C -1.42172 -1.04542 -0.61259
|  9> C 0.09994 -1.07658 -0.62687
| 10> O 0.60510 0.10107 0.00409
| 11> C 2.02884 0.11328 0.01139
| 12> C 2.50557 1.38633 0.69448
| 13> O 3.93179 1.40788 0.70731
| 14> C 4.42307 2.58607 1.33983
| 15> C 5.94383 2.55487 1.32506
| 16> O 6.44061 3.73208 1.95713
| 17> C 7.86484 3.74871 1.96606
| 18> C 8.33808 5.02226 2.65079
| 19> O 9.76293 5.04300 2.66109
| 20> C 10.25517 6.21969 3.29577
| 21> C 11.77649 6.19003 3.27746
| 22> O 12.27195 7.36518 3.91341
| 23> C 13.69719 7.38386 3.92409
| 24> C 14.17123 8.65565 4.61295
| 25> O 15.59671 8.67701 4.62530
| 26> C 16.09039 9.85376 5.26319
| 27> C 17.61339 9.82595 5.24858
| 28> O 18.11496 11.00008 5.88413
| 29> C 19.53618 11.01533 5.89213
| 30> H -3.39687 -3.55629 -2.94288
| 31> H -3.40096 -4.37368 -1.41240
| 32> H -3.70979 -2.18651 -0.21664
| 33> H -3.70617 -1.34542 -1.79091
| 34> H -1.78107 -0.98938 0.42205
| 35> H -1.77850 -0.15272 -1.14039
| 36> H 0.46193 -1.13239 -1.66064
| 37> H 0.45952 -1.96804 -0.09883
| 38> H 2.41425 0.07481 -1.01473
| 39> H 2.41350 -0.76302 0.54722
| 40> H 2.11967 1.42582 1.72041
| 41> H 2.12106 2.26306 0.15917
| 42> H 4.06176 2.64012 2.37387
| 43> H 4.06363 3.47772 0.81213
| 44> H 6.30508 2.50052 0.29091
| 45> H 6.30321 1.66304 1.85236
| 46> H 8.25057 3.71187 0.94024
| 47> H 8.25064 2.87289 2.50109
| 48> H 7.95183 5.05883 3.67657
| 49> H 7.95117 5.89794 2.11608
| 50> H 9.89619 6.26942 4.33095
| 51> H 9.89368 7.11203 2.77187
| 52> H 12.13531 6.14002 2.24228
| 53> H 12.13770 5.29623 3.80028
| 54> H 14.08280 7.34953 2.89805
| 55> H 14.08239 6.50581 4.45627
| 56> H 13.78363 8.68918 5.63836
| 57> H 13.78464 9.53281 4.08012
| 58> H 15.72840 9.90224 6.29720
| 59> H 15.72872 10.74655 4.73901
| 60> H 17.97261 9.77454 4.21359
| 61> H 17.97247 8.93109 5.77114
| 62> H 19.86731 11.93150 6.38803
| 63> H 19.92474 11.01077 4.86926
| 64> H 19.92495 10.15643 6.44748
| 65> **                         ****END OF INPUT****
================================================================================

                       *****************************
                       * Geometry Optimization Run *
                       *****************************

Geometry optimization settings:
Update method            Update   .... BFGS
Choice of coordinates    CoordSys .... Redundant Internals
Initial Hessian          InHess   .... Almoef's Model

Convergence Tolerances:
Energy Change            TolE     ....  5.0000e-06 Eh
Max. Gradient            TolMAXG  ....  3.0000e-04 Eh/bohr
RMS Gradient             TolRMSG  ....  1.0000e-04 Eh/bohr
Max. Displacement        TolMAXD  ....  4.0000e-03 bohr
RMS Displacement         TolRMSD  ....  2.0000e-03 bohr

------------------------------------------------------------------------------
                        ORCA OPTIMIZATION COORDINATE SETUP
------------------------------------------------------------------------------

The optimization will be done in new redundant internal coordinates
Making redundant internal coordinates   ...  (new redundants) done
Evaluating the initial hessian          ...  (Almloef) done
Evaluating the coordinates              ...  done
Calculating the B-matrix                .... done
Calculating the G-matrix                .... done
Diagonalizing the G-matrix              .... done
Small eigenvalue found = 1.076e-04
Small eigenvalue found = 4.626e-04
Small eigenvalue found = 7.741e-04
Small eigenvalue found = 2.773e-03
Small eigenvalue found = 3.404e-03
Small eigenvalue found = 5.182e-03
Small eigenvalue found = 6.372e-03
Small eigenvalue found = 7.034e-03
Small eigenvalue found = 1.272e-02
Small eigenvalue found = 1.387e-02
Small eigenvalue found = 1.946e-02
Small eigenvalue found = 2.488e-02
Small eigenvalue found = 2.714e-02
The first mode is                       ....  113
The number of degrees of freedom        ....  177

    -----------------------------------------------------------------
                    Redundant Internal Coordinates


    -----------------------------------------------------------------
         Definition                    Initial Value    Approx d2E/dq
    -----------------------------------------------------------------
      1. B(C   1,S   0)                  1.8377         0.325235   
      2. B(C   2,C   1)                  1.5315         0.371505   
      3. B(O   3,C   2)                  1.4369         0.470971   
      4. B(C   4,O   3)                  1.4234         0.495063   
      5. B(C   5,C   4)                  1.5220         0.384652   
      6. B(O   6,C   5)                  1.4283         0.486078   
      7. B(C   7,O   6)                  1.4238         0.494233   
      8. B(C   8,C   7)                  1.5214         0.385621   
      9. B(O   9,C   8)                  1.4264         0.489482   
     10. B(C  10,O   9)                  1.4246         0.492750   
     11. B(C  11,C  10)                  1.5212         0.385917   
     12. B(O  12,C  11)                  1.4255         0.491128   
     13. B(C  13,O  12)                  1.4244         0.493247   
     14. B(C  14,C  13)                  1.5214         0.385527   
     15. B(O  15,C  14)                  1.4250         0.492010   
     16. B(C  16,O  15)                  1.4247         0.492655   
     17. B(C  17,C  16)                  1.5217         0.385114   
     18. B(O  18,C  17)                  1.4251         0.491911   
     19. B(C  19,O  18)                  1.4254         0.491352   
     20. B(C  20,C  19)                  1.5221         0.384620   
     21. B(O  21,C  20)                  1.4257         0.490827   
     22. B(C  22,O  21)                  1.4267         0.489084   
     23. B(C  23,C  22)                  1.5233         0.382850   
     24. B(O  24,C  23)                  1.4262         0.489895   
     25. B(C  25,O  24)                  1.4213         0.498769   
     26. B(H  26,C   1)                  1.0974         0.350485   
     27. B(H  27,C   1)                  1.0974         0.350503   
     28. B(H  28,C   2)                  1.0974         0.350437   
     29. B(H  29,C   2)                  1.0974         0.350419   
     30. B(H  30,C   4)                  1.0967         0.351344   
     31. B(H  31,C   4)                  1.0967         0.351329   
     32. B(H  32,C   5)                  1.0967         0.351297   
     33. B(H  33,C   5)                  1.0967         0.351301   
     34. B(H  34,C   7)                  1.0968         0.351232   
     35. B(H  35,C   7)                  1.0968         0.351211   
     36. B(H  36,C   8)                  1.0968         0.351192   
     37. B(H  37,C   8)                  1.0968         0.351163   
     38. B(H  38,C  10)                  1.0967         0.351372   
     39. B(H  39,C  10)                  1.0967         0.351372   
     40. B(H  40,C  11)                  1.0968         0.351244   
     41. B(H  41,C  11)                  1.0966         0.351457   
     42. B(H  42,C  13)                  1.0966         0.351521   
     43. B(H  43,C  13)                  1.0964         0.351693   
     44. B(H  44,C  14)                  1.0967         0.351345   
     45. B(H  45,C  14)                  1.0966         0.351534   
     46. B(H  46,C  16)                  1.0968         0.351235   
     47. B(H  47,C  16)                  1.0961         0.352131   
     48. B(H  48,C  17)                  1.0967         0.351286   
     49. B(H  49,C  17)                  1.0967         0.351380   
     50. B(H  50,C  19)                  1.0966         0.351415   
     51. B(H  51,C  19)                  1.0966         0.351454   
     52. B(H  52,C  20)                  1.0967         0.351302   
     53. B(H  53,C  20)                  1.0967         0.351334   
     54. B(H  54,C  22)                  1.0966         0.351455   
     55. B(H  55,C  22)                  1.0967         0.351408   
     56. B(H  56,C  23)                  1.0968         0.351265   
     57. B(H  57,C  23)                  1.0967         0.351327   
     58. B(H  58,C  25)                  1.0931         0.355984   
     59. B(H  59,C  25)                  1.0942         0.354593   
     60. B(H  60,C  25)                  1.0942         0.354592   
     61. A(H  26,C   1,H  27)          104.4779         0.288384   
     62. A(S   0,C   1,H  27)          112.6357         0.331575   
     63. A(C   2,C   1,H  27)          108.3497         0.322591   
     64. A(S   0,C   1,C   2)          110.1229         0.373188   
     65. A(C   2,C   1,H  26)          108.3508         0.322588   
     66. A(S   0,C   1,H  26)          112.6358         0.331572   
     67. A(H  28,C   2,H  29)          108.8234         0.288367   
     68. A(C   1,C   2,H  29)          110.7977         0.322578   
     69. A(O   3,C   2,H  28)          108.6728         0.333438   
     70. A(C   1,C   2,O   3)          109.0302         0.375382   
     71. A(O   3,C   2,H  29)          108.6689         0.333435   
     72. A(C   1,C   2,H  28)          110.7951         0.322581   
     73. A(C   2,O   3,C   4)          110.8276         0.392097   
     74. A(O   3,C   4,H  31)          110.3085         0.336355   
     75. A(C   5,C   4,H  31)          109.7176         0.324562   
     76. A(O   3,C   4,C   5)          108.9678         0.380923   
     77. A(C   5,C   4,H  30)          109.7233         0.324564   
     78. A(O   3,C   4,H  30)          110.3032         0.336358   
     79. A(H  30,C   4,H  31)          107.8084         0.288601   
     80. A(O   6,C   5,H  32)          109.9747         0.335327   
     81. A(H  32,C   5,H  33)          107.7128         0.288591   
     82. A(O   6,C   5,H  33)          109.9701         0.335328   
     83. A(C   4,C   5,H  33)          109.8711         0.324558   
     84. A(C   4,C   5,O   6)          109.4240         0.379715   
     85. A(C   4,C   5,H  32)          109.8685         0.324557   
     86. A(C   5,O   6,C   7)          111.2837         0.394154   
     87. A(O   6,C   7,C   8)          108.8335         0.380978   
     88. A(H  34,C   7,H  35)          107.8062         0.288571   
     89. A(C   8,C   7,H  35)          109.8345         0.324678   
     90. A(O   6,C   7,H  35)          110.2640         0.336243   
     91. A(C   8,C   7,H  34)          109.8346         0.324681   
     92. A(O   6,C   7,H  34)          110.2602         0.336246   
     93. A(H  36,C   8,H  37)          107.7212         0.288560   
     94. A(C   7,C   8,H  37)          109.8693         0.324671   
     95. A(O   9,C   8,H  37)          110.0488         0.335695   
     96. A(O   9,C   8,H  36)          110.0490         0.335700   
     97. A(C   7,C   8,H  36)          109.8682         0.324675   
     98. A(C   7,C   8,O   9)          109.2681         0.380341   
     99. A(C   8,O   9,C  10)          111.1789         0.394429   
    100. A(C  11,C  10,H  39)          109.8569         0.324744   
    101. A(O   9,C  10,H  39)          110.2268         0.336100   
    102. A(C  11,C  10,H  38)          109.8488         0.324744   
    103. A(O   9,C  10,H  38)          110.2292         0.336100   
    104. A(O   9,C  10,C  11)          108.8738         0.380831   
    105. A(H  38,C  10,H  39)          107.7969         0.288610   
    106. A(C  10,C  11,H  41)          109.8553         0.324757   
    107. A(O  12,C  11,H  40)          110.1339         0.335896   
    108. A(C  10,C  11,H  40)          109.8440         0.324724   
    109. A(C  10,C  11,O  12)          109.0962         0.380613   
    110. A(O  12,C  11,H  41)          110.1321         0.335930   
    111. A(H  40,C  11,H  41)          107.7669         0.288605   
    112. A(C  11,O  12,C  13)          111.1542         0.394731   
    113. A(O  12,C  13,C  14)          108.8818         0.380830   
    114. A(H  42,C  13,H  43)          107.8113         0.288670   
    115. A(C  14,C  13,H  43)          109.8515         0.324738   
    116. A(C  14,C  13,H  42)          109.8604         0.324712   
    117. A(O  12,C  13,H  42)          110.2108         0.336180   
    118. A(O  12,C  13,H  43)          110.2167         0.336208   
    119. A(C  13,C  14,O  15)          109.0531         0.380665   
    120. A(H  44,C  14,H  45)          107.7700         0.288627   
    121. A(O  15,C  14,H  45)          110.1633         0.336042   
    122. A(C  13,C  14,H  45)          109.8315         0.324714   
    123. A(O  15,C  14,H  44)          110.1757         0.336012   
    124. A(C  13,C  14,H  44)          109.8353         0.324686   
    125. A(C  14,O  15,C  16)          111.1434         0.394772   
    126. A(C  17,C  16,H  47)          109.8665         0.324748   
    127. A(O  15,C  16,H  47)          110.2136         0.336210   
    128. A(C  17,C  16,H  46)          109.8438         0.324612   
    129. A(O  15,C  16,H  46)          110.1714         0.336068   
    130. A(O  15,C  16,C  17)          108.9025         0.380680   
    131. A(H  46,C  16,H  47)          107.8344         0.288690   
    132. A(O  18,C  17,H  49)          110.1704         0.336006   
    133. A(H  48,C  17,H  49)          107.7611         0.288600   
    134. A(C  16,C  17,H  49)          109.8423         0.324634   
    135. A(O  18,C  17,H  48)          110.1852         0.335991   
    136. A(C  16,C  17,H  48)          109.8359         0.324619   
    137. A(C  16,C  17,O  18)          109.0344         0.380581   
    138. A(C  17,O  18,C  19)          111.2095         0.394575   
    139. A(H  50,C  19,H  51)          107.7864         0.288626   
    140. A(C  20,C  19,H  51)          109.8767         0.324576   
    141. A(O  18,C  19,H  51)          110.1431         0.335954   
    142. A(C  20,C  19,H  50)          109.8822         0.324571   
    143. A(O  18,C  19,H  50)          110.1309         0.335948   
    144. A(O  18,C  19,C  20)          109.0110         0.380421   
    145. A(H  52,C  20,H  53)          107.7713         0.288596   
    146. A(O  21,C  20,H  53)          110.1618         0.335876   
    147. A(C  19,C  20,H  53)          109.7933         0.324558   
    148. A(O  21,C  20,H  52)          110.1698         0.335871   
    149. A(C  19,C  20,H  52)          109.7932         0.324553   
    150. A(C  19,C  20,O  21)          109.1375         0.380350   
    151. A(C  20,O  21,C  22)          111.2364         0.394103   
    152. A(H  54,C  22,H  55)          107.8087         0.288625   
    153. A(C  23,C  22,H  55)          109.8771         0.324324   
    154. A(O  21,C  22,H  55)          110.1000         0.335689   
    155. A(C  23,C  22,H  54)          109.8694         0.324331   
    156. A(O  21,C  22,H  54)          110.1106         0.335696   
    157. A(O  21,C  22,C  23)          109.0637         0.379812   
    158. A(H  56,C  23,H  57)          107.7075         0.288590   
    159. A(O  24,C  23,H  57)          110.1363         0.335768   
    160. A(C  22,C  23,H  57)          109.7350         0.324311   
    161. A(O  24,C  23,H  56)          110.1163         0.335759   
    162. A(C  22,C  23,H  56)          109.7164         0.324302   
    163. A(C  22,C  23,O  24)          109.4086         0.379921   
    164. A(C  23,O  24,C  25)          111.2843         0.395328   
    165. A(H  59,C  25,H  60)          110.1827         0.289436   
    166. A(H  58,C  25,H  60)          108.6637         0.289614   
    167. A(O  24,C  25,H  60)          110.4696         0.337292   
    168. A(H  58,C  25,H  59)          108.6631         0.289614   
    169. A(O  24,C  25,H  59)          110.4737         0.337293   
    170. A(O  24,C  25,H  58)          108.3272         0.337513   
    171. D(O   3,C   2,C   1,H  27)     56.4228         0.011028   
    172. D(H  28,C   2,C   1,H  26)   -175.9334         0.011028   
    173. D(H  29,C   2,C   1,H  27)    175.9747         0.011028   
    174. D(H  29,C   2,C   1,S   0)    -60.4263         0.011028   
    175. D(O   3,C   2,C   1,S   0)   -179.9781         0.011028   
    176. D(H  29,C   2,C   1,H  26)     63.1737         0.011028   
    177. D(O   3,C   2,C   1,H  26)    -56.3782         0.011028   
    178. D(H  28,C   2,C   1,H  27)    -63.1324         0.011028   
    179. D(H  28,C   2,C   1,S   0)     60.4667         0.011028   
    180. D(C   4,O   3,C   2,H  29)     59.1766         0.017486   
    181. D(C   4,O   3,C   2,C   1)   -179.9598         0.017486   
    182. D(C   4,O   3,C   2,H  28)    -59.0969         0.017486   
    183. D(H  31,C   4,O   3,C   2)    -59.4599         0.019364   
    184. D(H  30,C   4,O   3,C   2)     59.5283         0.019364   
    185. D(C   5,C   4,O   3,C   2)   -179.9639         0.019364   
    186. D(H  33,C   5,C   4,H  31)    179.9503         0.011778   
    187. D(H  33,C   5,C   4,H  30)     61.6807         0.011778   
    188. D(H  33,C   5,C   4,O   3)    -59.1831         0.011778   
    189. D(H  32,C   5,C   4,H  30)   -179.9866         0.011778   
    190. D(O   6,C   5,C   4,H  31)     59.1186         0.011778   
    191. D(H  32,C   5,C   4,H  31)    -61.7170         0.011778   
    192. D(O   6,C   5,C   4,H  30)    -59.1510         0.011778   
    193. D(O   6,C   5,C   4,O   3)    179.9853         0.011778   
    194. D(H  32,C   5,C   4,O   3)     59.1497         0.011778   
    195. D(C   7,O   6,C   5,H  33)     59.2847         0.018649   
    196. D(C   7,O   6,C   5,H  32)    -59.1728         0.018649   
    197. D(C   7,O   6,C   5,C   4)   -179.9439         0.018649   
    198. D(H  35,C   7,O   6,C   5)    -59.4273         0.019298   
    199. D(H  34,C   7,O   6,C   5)     59.5033         0.019298   
    200. D(C   8,C   7,O   6,C   5)   -179.9630         0.019298   
    201. D(O   9,C   8,C   7,O   6)    179.9805         0.011834   
    202. D(H  37,C   8,C   7,H  34)     61.6054         0.011834   
    203. D(H  37,C   8,C   7,O   6)    -59.1901         0.011834   
    204. D(H  36,C   8,C   7,H  35)    -61.6484         0.011834   
    205. D(H  36,C   8,C   7,H  34)    179.9472         0.011834   
    206. D(H  36,C   8,C   7,O   6)     59.1517         0.011834   
    207. D(O   9,C   8,C   7,H  35)     59.1805         0.011834   
    208. D(H  37,C   8,C   7,H  35)   -179.9902         0.011834   
    209. D(O   9,C   8,C   7,H  34)    -59.2239         0.011834   
    210. D(C  10,O   9,C   8,H  37)     59.2910         0.018918   
    211. D(C  10,O   9,C   8,H  36)    -59.2706         0.018918   
    212. D(C  10,O   9,C   8,C   7)   -179.9892         0.018918   
    213. D(H  39,C  10,O   9,C   8)    -59.4556         0.019179   
    214. D(H  38,C  10,O   9,C   8)     59.4210         0.019179   
    215. D(C  11,C  10,O   9,C   8)    179.9784         0.019179   
    216. D(H  41,C  11,C  10,H  39)   -179.9757         0.011852   
    217. D(H  41,C  11,C  10,H  38)     61.6090         0.011852   
    218. D(H  41,C  11,C  10,O   9)    -59.1824         0.011852   
    219. D(H  40,C  11,C  10,H  39)    -61.6012         0.011852   
    220. D(H  40,C  11,C  10,H  38)    179.9836         0.011852   
    221. D(H  40,C  11,C  10,O   9)     59.1922         0.011852   
    222. D(O  12,C  11,C  10,H  39)     59.2092         0.011852   
    223. D(O  12,C  11,C  10,H  38)    -59.2061         0.011852   
    224. D(O  12,C  11,C  10,O   9)   -179.9974         0.011852   
    225. D(C  13,O  12,C  11,H  41)     59.4239         0.019049   
    226. D(C  13,O  12,C  11,H  40)    -59.2975         0.019049   
    227. D(C  13,O  12,C  11,C  10)   -179.9304         0.019049   
    228. D(H  43,C  13,O  12,C  11)    -59.4092         0.019218   
    229. D(H  42,C  13,O  12,C  11)     59.4673         0.019218   
    230. D(C  14,C  13,O  12,C  11)   -179.9673         0.019218   
    231. D(O  15,C  14,C  13,H  43)     59.2488         0.011829   
    232. D(O  15,C  14,C  13,H  42)    -59.1877         0.011829   
    233. D(O  15,C  14,C  13,O  12)   -179.9685         0.011829   
    234. D(H  45,C  14,C  13,H  43)   -179.9393         0.011829   
    235. D(H  45,C  14,C  13,H  42)     61.6241         0.011829   
    236. D(H  45,C  14,C  13,O  12)    -59.1567         0.011829   
    237. D(H  44,C  14,C  13,H  43)    -61.5806         0.011829   
    238. D(H  44,C  14,C  13,H  42)    179.9829         0.011829   
    239. D(H  44,C  14,C  13,O  12)     59.2021         0.011829   
    240. D(C  16,O  15,C  14,H  45)     59.4697         0.019120   
    241. D(C  16,O  15,C  14,H  44)    -59.3009         0.019120   
    242. D(C  16,O  15,C  14,C  13)   -179.9218         0.019120   
    243. D(H  47,C  16,O  15,C  14)    -59.3650         0.019171   
    244. D(H  46,C  16,O  15,C  14)     59.5136         0.019171   
    245. D(C  17,C  16,O  15,C  14)   -179.9527         0.019171   
    246. D(H  49,C  17,C  16,H  47)   -179.9066         0.011805   
    247. D(H  49,C  17,C  16,H  46)     61.6295         0.011805   
    248. D(H  49,C  17,C  16,O  15)    -59.1057         0.011805   
    249. D(H  48,C  17,C  16,H  47)    -61.5519         0.011805   
    250. D(H  48,C  17,C  16,H  46)    179.9843         0.011805   
    251. D(H  48,C  17,C  16,O  15)     59.2491         0.011805   
    252. D(O  18,C  17,C  16,H  47)     59.2779         0.011805   
    253. D(O  18,C  17,C  16,H  46)    -59.1859         0.011805   
    254. D(O  18,C  17,C  16,O  15)   -179.9212         0.011805   
    255. D(C  19,O  18,C  17,H  49)     59.2849         0.019112   
    256. D(C  19,O  18,C  17,H  48)    -59.4851         0.019112   
    257. D(C  19,O  18,C  17,C  16)    179.8992         0.019112   
    258. D(H  51,C  19,O  18,C  17)    -59.3526         0.019067   
    259. D(H  50,C  19,O  18,C  17)     59.3979         0.019067   
    260. D(C  20,C  19,O  18,C  17)   -179.9777         0.019067   
    261. D(H  53,C  20,C  19,H  51)   -179.9574         0.011776   
    262. D(H  53,C  20,C  19,H  50)     61.6080         0.011776   
    263. D(H  53,C  20,C  19,O  18)    -59.1689         0.011776   
    264. D(H  52,C  20,C  19,H  51)    -61.6456         0.011776   
    265. D(H  52,C  20,C  19,H  50)    179.9198         0.011776   
    266. D(H  52,C  20,C  19,O  18)     59.1429         0.011776   
    267. D(O  21,C  20,C  19,H  51)     59.2034         0.011776   
    268. D(O  21,C  20,C  19,H  50)    -59.2313         0.011776   
    269. D(O  21,C  20,C  19,O  18)    179.9918         0.011776   
    270. D(C  22,O  21,C  20,H  53)     59.4043         0.019025   
    271. D(C  22,O  21,C  20,H  52)    -59.3633         0.019025   
    272. D(C  22,O  21,C  20,C  19)   -179.9819         0.019025   
    273. D(H  55,C  22,O  21,C  20)    -59.3549         0.018887   
    274. D(H  54,C  22,O  21,C  20)     59.3837         0.018887   
    275. D(C  23,C  22,O  21,C  20)   -179.9870         0.018887   
    276. D(H  57,C  23,C  22,H  55)   -179.8615         0.011673   
    277. D(H  57,C  23,C  22,H  54)     61.6842         0.011673   
    278. D(H  57,C  23,C  22,O  21)    -59.0928         0.011673   
    279. D(H  56,C  23,C  22,H  55)    -61.7086         0.011673   
    280. D(H  56,C  23,C  22,H  54)    179.8370         0.011673   
    281. D(H  56,C  23,C  22,O  21)     59.0600         0.011673   
    282. D(O  24,C  23,C  22,H  55)     59.1968         0.011673   
    283. D(O  24,C  23,C  22,H  54)    -59.2576         0.011673   
    284. D(O  24,C  23,C  22,O  21)    179.9655         0.011673   
    285. D(C  25,O  24,C  23,H  57)     59.3275         0.018951   
    286. D(C  25,O  24,C  23,H  56)    -59.3126         0.018951   
    287. D(C  25,O  24,C  23,C  22)   -179.9748         0.018951   
    288. D(H  60,C  25,O  24,C  23)    -61.0884         0.019664   
    289. D(H  59,C  25,O  24,C  23)     61.0839         0.019664   
    290. D(H  58,C  25,O  24,C  23)    179.9986         0.019664   
    -----------------------------------------------------------------

Number of atoms                         .... 61
Number of degrees of freedom            .... 290

         *************************************************************
         *                GEOMETRY OPTIMIZATION CYCLE   1            *
         *************************************************************
---------------------------------
CARTESIAN COORDINATES (ANGSTROEM)
---------------------------------
  S     -5.673200   -3.559520   -1.967150
  C     -3.836260   -3.514470   -1.938190
  C     -3.351360   -2.233600   -1.252790
  O     -1.914500   -2.222300   -1.243510
  C     -1.421720   -1.045420   -0.612590
  C      0.099940   -1.076580   -0.626870
  O      0.605100    0.101070    0.004090
  C      2.028840    0.113280    0.011390
  C      2.505570    1.386330    0.694480
  O      3.931790    1.407880    0.707310
  C      4.423070    2.586070    1.339830
  C      5.943830    2.554870    1.325060
  O      6.440610    3.732080    1.957130
  C      7.864840    3.748710    1.966060
  C      8.338080    5.022260    2.650790
  O      9.762930    5.043000    2.661090
  C     10.255170    6.219690    3.295770
  C     11.776490    6.190030    3.277460
  O     12.271950    7.365180    3.913410
  C     13.697190    7.383860    3.924090
  C     14.171230    8.655650    4.612950
  O     15.596710    8.677010    4.625300
  C     16.090390    9.853760    5.263190
  C     17.613390    9.825950    5.248580
  O     18.114960   11.000080    5.884130
  C     19.536180   11.015330    5.892130
  H     -3.396870   -3.556290   -2.942880
  H     -3.400960   -4.373680   -1.412400
  H     -3.709790   -2.186510   -0.216640
  H     -3.706170   -1.345420   -1.790910
  H     -1.781070   -0.989380    0.422050
  H     -1.778500   -0.152720   -1.140390
  H      0.461930   -1.132390   -1.660640
  H      0.459520   -1.968040   -0.098830
  H      2.414250    0.074810   -1.014730
  H      2.413500   -0.763020    0.547220
  H      2.119670    1.425820    1.720410
  H      2.121060    2.263060    0.159170
  H      4.061760    2.640120    2.373870
  H      4.063630    3.477720    0.812130
  H      6.305080    2.500520    0.290910
  H      6.303210    1.663040    1.852360
  H      8.250570    3.711870    0.940240
  H      8.250640    2.872890    2.501090
  H      7.951830    5.058830    3.676570
  H      7.951170    5.897940    2.116080
  H      9.896190    6.269420    4.330950
  H      9.893680    7.112030    2.771870
  H     12.135310    6.140020    2.242280
  H     12.137700    5.296230    3.800280
  H     14.082800    7.349530    2.898050
  H     14.082390    6.505810    4.456270
  H     13.783630    8.689180    5.638360
  H     13.784640    9.532810    4.080120
  H     15.728400    9.902240    6.297200
  H     15.728720   10.746550    4.739010
  H     17.972610    9.774540    4.213590
  H     17.972470    8.931090    5.771140
  H     19.867310   11.931500    6.388030
  H     19.924740   11.010770    4.869260
  H     19.924950   10.156430    6.447480

----------------------------
CARTESIAN COORDINATES (A.U.)
----------------------------
  NO LB      ZA    FRAG     MASS         X           Y           Z
   0 S    16.0000    0    32.060  -10.720794   -6.726518   -3.717375
   1 C     6.0000    0    12.011   -7.249481   -6.641386   -3.662648
   2 C     6.0000    0    12.011   -6.333153   -4.220892   -2.367430
   3 O     8.0000    0    15.999   -3.617881   -4.199538   -2.349893
   4 C     6.0000    0    12.011   -2.686661   -1.975557   -1.157627
   5 C     6.0000    0    12.011    0.188859   -2.034441   -1.184613
   6 O     8.0000    0    15.999    1.143473    0.190995    0.007729
   7 C     6.0000    0    12.011    3.833952    0.214068    0.021524
   8 C     6.0000    0    12.011    4.734841    2.619784    1.312377
   9 O     8.0000    0    15.999    7.430006    2.660508    1.336622
  10 C     6.0000    0    12.011    8.358391    4.886964    2.531912
  11 C     6.0000    0    12.011   11.232211    4.828005    2.504001
  12 O     8.0000    0    15.999   12.170989    7.052609    3.698440
  13 C     6.0000    0    12.011   14.862394    7.084035    3.715315
  14 C     6.0000    0    12.011   15.756688    9.490696    5.009267
  15 O     8.0000    0    15.999   18.449264    9.529889    5.028731
  16 C     6.0000    0    12.011   19.379463   11.753511    6.228103
  17 C     6.0000    0    12.011   22.254341   11.697461    6.193502
  18 O     8.0000    0    15.999   23.190625   13.918173    7.395273
  19 C     6.0000    0    12.011   25.883938   13.953473    7.415455
  20 C     6.0000    0    12.011   26.779744   16.356808    8.717212
  21 O     8.0000    0    15.999   29.473510   16.397173    8.740550
  22 C     6.0000    0    12.011   30.406430   18.620908    9.945988
  23 C     6.0000    0    12.011   33.284483   18.568355    9.918379
  24 O     8.0000    0    15.999   34.232313   20.787139   11.119394
  25 C     6.0000    0    12.011   36.918030   20.815957   11.134512
  26 H     1.0000    0     1.008   -6.419154   -6.720414   -5.561237
  27 H     1.0000    0     1.008   -6.426883   -8.265057   -2.669049
  28 H     1.0000    0     1.008   -7.010487   -4.131905   -0.409390
  29 H     1.0000    0     1.008   -7.003646   -2.542475   -3.384329
  30 H     1.0000    0     1.008   -3.365735   -1.869657    0.797559
  31 H     1.0000    0     1.008   -3.360878   -0.288599   -2.155025
  32 H     1.0000    0     1.008    0.872921   -2.139907   -3.138155
  33 H     1.0000    0     1.008    0.868367   -3.719057   -0.186762
  34 H     1.0000    0     1.008    4.562271    0.141370   -1.917562
  35 H     1.0000    0     1.008    4.560854   -1.441899    1.034096
  36 H     1.0000    0     1.008    4.005596    2.694409    3.251104
  37 H     1.0000    0     1.008    4.008223    4.276564    0.300788
  38 H     1.0000    0     1.008    7.675614    4.989104    4.485964
  39 H     1.0000    0     1.008    7.679148    6.571938    1.534703
  40 H     1.0000    0     1.008   11.914874    4.725298    0.549740
  41 H     1.0000    0     1.008   11.911341    3.142690    3.500453
  42 H     1.0000    0     1.008   15.591318    7.014418    1.776796
  43 H     1.0000    0     1.008   15.591450    5.428975    4.726375
  44 H     1.0000    0     1.008   15.026781    9.559803    6.947710
  45 H     1.0000    0     1.008   15.025534   11.145491    3.998812
  46 H     1.0000    0     1.008   18.701089   11.847487    8.184309
  47 H     1.0000    0     1.008   18.696346   13.439789    5.238075
  48 H     1.0000    0     1.008   22.932412   11.602956    4.237295
  49 H     1.0000    0     1.008   22.936929   10.008424    7.181488
  50 H     1.0000    0     1.008   26.612635   13.888599    5.476521
  51 H     1.0000    0     1.008   26.611860   12.294199    8.421130
  52 H     1.0000    0     1.008   26.047286   16.420171   10.654956
  53 H     1.0000    0     1.008   26.049194   18.014400    7.710309
  54 H     1.0000    0     1.008   29.722369   18.712522   11.899983
  55 H     1.0000    0     1.008   29.722973   20.308036    8.955431
  56 H     1.0000    0     1.008   33.963311   18.471204    7.962531
  57 H     1.0000    0     1.008   33.963046   16.877314   10.905874
  58 H     1.0000    0     1.008   37.543775   22.547267   12.071627
  59 H     1.0000    0     1.008   37.652302   20.807340    9.201568
  60 H     1.0000    0     1.008   37.652699   19.192871   12.183971

--------------------------------
INTERNAL COORDINATES (ANGSTROEM)
--------------------------------
 S      0   0   0     0.000000000000     0.00000000     0.00000000
 C      1   0   0     1.837720530358     0.00000000     0.00000000
 C      2   1   0     1.531512039424   110.12292426     0.00000000
 O      3   2   1     1.436934399338   109.03017275   180.02185003
 C      4   3   2     1.423354737653   110.82759797   180.04022577
 C      5   4   3     1.522045997859   108.96777860   180.03608461
 O      6   5   4     1.428340530021   109.42396956   179.98530681
 C      7   6   5     1.423811069524   111.28374102   180.05610459
 C      8   7   6     1.521361148281   108.83354441   180.03696343
 O      9   8   7     1.426440499916   109.26812804   179.98054273
 C     10   9   8     1.424629518471   111.17893819   180.01083370
 C     11  10   9     1.521151725010   108.87381472   179.97840787
 O     12  11  10     1.425526652645   109.09623595   180.00256730
 C     13  12  11     1.424355080273   111.15423026   180.06956465
 C     14  13  12     1.521427248671   108.88184398   180.03271584
 O     15  14  13     1.425038160928   109.05312620   180.03146189
 C     16  15  14     1.424681815740   111.14341606   180.07823691
 C     17  16  15     1.521719262578   108.90254396   180.04734463
 O     18  17  16     1.425093167691   109.03436263   180.07882934
 C     19  18  17     1.425402421213   111.20949589   179.89921311
 C     20  19  18     1.522068272220   109.01103999   180.02230227
 O     21  20  19     1.425693516328   109.13754727   179.99181953
 C     22  21  20     1.426661893022   111.23644868   180.01810052
 C     23  22  21     1.523323947229   109.06366135   180.01295845
 O     24  23  22     1.426210897553   109.40855964   179.96545490
 C     25  24  23     1.421324329947   111.28427508   180.02524198
 H      2   1   3     1.097367067394   112.63578176   238.93079033
 H      2   1   3     1.097352741009   112.63566877   121.06773154
 H      3   2   1     1.097404371916   110.79513745    60.46665751
 H      3   2   1     1.097418326300   110.79769156   299.57373991
 H      5   4   3     1.096700886158   110.30322170    59.52827050
 H      5   4   3     1.096712404598   110.30848680   300.54005438
 H      6   5   4     1.096736946173   109.86849406    59.14967682
 H      6   5   4     1.096733764229   109.87107263   300.81691247
 H      8   7   6     1.096787610889   110.26018752    59.50333085
 H      8   7   6     1.096803899747   110.26396139   300.57274138
 H      9   8   7     1.096818414780   109.86817751    59.15167853
 H      9   8   7     1.096841022710   109.86934272   300.80987730
 H     11  10   9     1.096679096272   110.22919999    59.42098086
 H     11  10   9     1.096678679514   110.22681820   300.54437165
 H     12  11  10     1.096777875187   109.84402501    59.19223606
 H     12  11  10     1.096612977901   109.85527547   300.81764840
 H     14  13  12     1.096563491504   110.21075793    59.46734439
 H     14  13  12     1.096430304807   110.21667655   300.59084772
 H     15  14  13     1.096700066472   109.83526560    59.20206459
 H     15  14  13     1.096553507404   109.83152508   300.84329632
 H     17  16  15     1.096785004319   110.17140415    59.51356554
 H     17  16  15     1.096091650228   110.21358500   300.63499074
 H     18  17  16     1.096745378335   109.83593378    59.24907089
 H     18  17  16     1.096673085518   109.84225236   300.89429666
 H     20  19  18     1.096645659546   110.13090947    59.39789122
 H     20  19  18     1.096615883024   110.14306534   300.64743322
 H     21  20  19     1.096733189522   109.79317811    59.14288924
 H     21  20  19     1.096708394515   109.79327118   300.83105007
 H     23  22  21     1.096614677359   110.11057742    59.38368647
 H     23  22  21     1.096651195869   110.09997152   300.64505081
 H     24  23  22     1.096761731918   109.71639385    59.06003328
 H     24  23  22     1.096714101122   109.73504038   300.90719501
 H     26  25  24     1.093129157877   108.32719502   179.99861406
 H     26  25  24     1.094195002776   110.47373352    61.08393537
 H     26  25  24     1.094196026953   110.46960528   298.91158598

---------------------------
INTERNAL COORDINATES (A.U.)
---------------------------
 S      0   0   0     0.000000000000     0.00000000     0.00000000
 C      1   0   0     3.472788513062     0.00000000     0.00000000
 C      2   1   0     2.894138325314   110.12292426     0.00000000
 O      3   2   1     2.715412487159   109.03017275   180.02185003
 C      4   3   2     2.689750645584   110.82759797   180.04022577
 C      5   4   3     2.876250099185   108.96777860   180.03608461
 O      6   5   4     2.699172427719   109.42396956   179.98530681
 C      7   6   5     2.690612987846   111.28374102   180.05610459
 C      8   7   6     2.874955921040   108.83354441   180.03696343
 O      9   8   7     2.695581891175   109.26812804   179.98054273
 C     10   9   8     2.692159632211   111.17893819   180.01083370
 C     11  10   9     2.874560168410   108.87381472   179.97840787
 O     12  11  10     2.693854970104   109.09623595   180.00256730
 C     13  12  11     2.691641019176   111.15423026   180.06956465
 C     14  13  12     2.875080832674   108.88184398   180.03271584
 O     15  14  13     2.692931854540   109.05312620   180.03146189
 C     16  15  14     2.692258459726   111.14341606   180.07823691
 C     17  16  15     2.875632658984   108.90254396   180.04734463
 O     18  17  16     2.693035802259   109.03436263   180.07882934
 C     19  18  17     2.693620206721   111.20949589   179.89921311
 C     20  19  18     2.876292191627   109.01103999   180.02230227
 O     21  20  19     2.694170296767   109.13754727   179.99181953
 C     22  21  20     2.696000263512   111.23644868   180.01810052
 C     23  22  21     2.878665073506   109.06366135   180.01295845
 O     24  23  22     2.695148005590   109.40855964   179.96545490
 C     25  24  23     2.685913731079   111.28427508   180.02524198
 H      2   1   3     2.073723225758   112.63578176   238.93079033
 H      2   1   3     2.073696152815   112.63566877   121.06773154
 H      3   2   1     2.073793721089   110.79513745    60.46665751
 H      3   2   1     2.073820091054   110.79769156   299.57373991
 H      5   4   3     2.072464325668   110.30322170    59.52827050
 H      5   4   3     2.072486092365   110.30848680   300.54005438
 H      6   5   4     2.072532469219   109.86849406    59.14967682
 H      6   5   4     2.072526456217   109.87107263   300.81691247
 H      8   7   6     2.072628211658   110.26018752    59.50333085
 H      8   7   6     2.072658993138   110.26396139   300.57274138
 H      9   8   7     2.072686422575   109.86817751    59.15167853
 H      9   8   7     2.072729145372   109.86934272   300.80987730
 H     11  10   9     2.072423148750   110.22919999    59.42098086
 H     11  10   9     2.072422361191   110.22681820   300.54437165
 H     12  11  10     2.072609813848   109.84402501    59.19223606
 H     12  11  10     2.072298203136   109.85527547   300.81764840
 H     14  13  12     2.072204687400   110.21075793    59.46734439
 H     14  13  12     2.071953001018   110.21667655   300.59084772
 H     15  14  13     2.072462776686   109.83526560    59.20206459
 H     15  14  13     2.072185820184   109.83152508   300.84329632
 H     17  16  15     2.072623285955   110.17140415    59.51356554
 H     17  16  15     2.071313036609   110.21358500   300.63499074
 H     18  17  16     2.072548403698   109.83593378    59.24907089
 H     18  17  16     2.072411790072   109.84225236   300.89429666
 H     20  19  18     2.072359962494   110.13090947    59.39789122
 H     20  19  18     2.072303693023   110.14306534   300.64743322
 H     21  20  19     2.072525370179   109.79317811    59.14288924
 H     21  20  19     2.072478514406   109.79327118   300.83105007
 H     23  22  21     2.072301414648   110.11057742    59.38368647
 H     23  22  21     2.072370424629   110.09997152   300.64505081
 H     24  23  22     2.072579307490   109.71639385    59.06003328
 H     24  23  22     2.072489298330   109.73504038   300.90719501
 H     26  25  24     2.065714737391   108.32719502   179.99861406
 H     26  25  24     2.067728892352   110.47373352    61.08393537
 H     26  25  24     2.067730827766   110.46960528   298.91158598

---------------------
BASIS SET INFORMATION
---------------------
There are 4 groups of distinct atoms

 Group   1 Type S   : 17s11p1d contracted to 5s4p1d pattern {66311/6311/1}
 Group   2 Type C   : 11s5p1d contracted to 4s3p1d pattern {6311/311/1}
 Group   3 Type O   : 11s5p1d contracted to 4s3p1d pattern {6311/311/1}
 Group   4 Type H   : 4s1p contracted to 2s1p pattern {31/1}

Atom   0S    basis set group =>   1
Atom   1C    basis set group =>   2
Atom   2C    basis set group =>   2
Atom   3O    basis set group =>   3
Atom   4C    basis set group =>   2
Atom   5C    basis set group =>   2
Atom   6O    basis set group =>   3
Atom   7C    basis set group =>   2
Atom   8C    basis set group =>   2
Atom   9O    basis set group =>   3
Atom  10C    basis set group =>   2
Atom  11C    basis set group =>   2
Atom  12O    basis set group =>   3
Atom  13C    basis set group =>   2
Atom  14C    basis set group =>   2
Atom  15O    basis set group =>   3
Atom  16C    basis set group =>   2
Atom  17C    basis set group =>   2
Atom  18O    basis set group =>   3
Atom  19C    basis set group =>   2
Atom  20C    basis set group =>   2
Atom  21O    basis set group =>   3
Atom  22C    basis set group =>   2
Atom  23C    basis set group =>   2
Atom  24O    basis set group =>   3
Atom  25C    basis set group =>   2
Atom  26H    basis set group =>   4
Atom  27H    basis set group =>   4
Atom  28H    basis set group =>   4
Atom  29H    basis set group =>   4
Atom  30H    basis set group =>   4
Atom  31H    basis set group =>   4
Atom  32H    basis set group =>   4
Atom  33H    basis set group =>   4
Atom  34H    basis set group =>   4
Atom  35H    basis set group =>   4
Atom  36H    basis set group =>   4
Atom  37H    basis set group =>   4
Atom  38H    basis set group =>   4
Atom  39H    basis set group =>   4
Atom  40H    basis set group =>   4
Atom  41H    basis set group =>   4
Atom  42H    basis set group =>   4
Atom  43H    basis set group =>   4
Atom  44H    basis set group =>   4
Atom  45H    basis set group =>   4
Atom  46H    basis set group =>   4
Atom  47H    basis set group =>   4
Atom  48H    basis set group =>   4
Atom  49H    basis set group =>   4
Atom  50H    basis set group =>   4
Atom  51H    basis set group =>   4
Atom  52H    basis set group =>   4
Atom  53H    basis set group =>   4
Atom  54H    basis set group =>   4
Atom  55H    basis set group =>   4
Atom  56H    basis set group =>   4
Atom  57H    basis set group =>   4
Atom  58H    basis set group =>   4
Atom  59H    basis set group =>   4
Atom  60H    basis set group =>   4
[file orca_main/mainfcts.cpp, line 334]: Error : multiplicity (1) is odd and number of electrons (217) is odd -> impossible

