
                                 *****************
                                 * O   R   C   A *
                                 *****************

           --- An Ab Initio, DFT and Semiempirical electronic structure package ---

                  #######################################################
                  #                        -***-                        #
                  #  Department of molecular theory and spectroscopy    #
                  #              Directorship: Frank Neese              #
                  # Max Planck Institute for Chemical Energy Conversion #
                  #                  D-45470 Muelheim/Ruhr              #
                  #                       Germany                       #
                  #                                                     #
                  #                  All rights reserved                #
                  #                        -***-                        #
                  #######################################################


                         Program Version 4.0.1.2 - RELEASE -


 With contributions from (in alphabetic order):
   Daniel Aravena         : Magnetic Properties
   Michael Atanasov       : Ab Initio Ligand Field Theory
   Ute Becker             : Parallelization
   Martin Brehm           : Molecular dynamics
   Dmytro Bykov           : SCF Hessian
   Vijay G. Chilkuri      : MRCI spin determinant printing
   Dipayan Datta          : RHF DLPNO-CCSD density
   Achintya Kumar Dutta   : EOM-CC, STEOM-CC
   Dmitry Ganyushin       : Spin-Orbit,Spin-Spin,Magnetic field MRCI
   Yang Guo               : DLPNO-NEVPT2, CIM, IAO-localization
   Andreas Hansen         : Spin unrestricted coupled pair/coupled cluster methods
   Lee Huntington         : MR-EOM, pCC
   Robert Izsak           : Overlap fitted RIJCOSX, COSX-SCS-MP3, EOM
   Christian Kollmar      : KDIIS, OOCD, Brueckner-CCSD(T), CCSD density
   Simone Kossmann        : Meta GGA functionals, TD-DFT gradient, OOMP2, MP2 Hessian
   Martin Krupicka        : AUTO-CI
   Dagmar Lenk            : GEPOL surface
   Dimitrios Liakos       : Extrapolation schemes; parallel MDCI
   Dimitrios Manganas     : ROCIS; embedding schemes
   Dimitrios Pantazis     : SARC Basis sets
   Taras Petrenko         : DFT Hessian,TD-DFT gradient, ASA, ECA, R-Raman, ABS, FL, XAS/XES, NRVS
   Peter Pinski           : DLPNO-MP2
   Christoph Reimann      : Effective Core Potentials
   Marius Retegan         : Local ZFS, SOC
   Christoph Riplinger    : Optimizer, TS searches, QM/MM, DLPNO-CCSD(T), (RO)-DLPNO pert. Triples
   Tobias Risthaus        : Range-separated hybrids, TD-DFT gradient, RPA, STAB
   Michael Roemelt        : Restricted open shell CIS
   Masaaki Saitow         : Open-shell DLPNO
   Barbara Sandhoefer     : DKH picture change effects
   Kantharuban Sivalingam : CASSCF convergence, NEVPT2, FIC-MRCI
   Georgi Stoychev        : AutoAux
   Boris Wezisla          : Elementary symmetry handling
   Frank Wennmohs         : Technical directorship


 We gratefully acknowledge several colleagues who have allowed us to
 interface, adapt or use parts of their codes:
   Stefan Grimme, W. Hujo, H. Kruse,             : VdW corrections, initial TS optimization,
                  C. Bannwarth                     DFT functionals, gCP, sTDA/sTD-DF
   Ed Valeev                                     : LibInt (2-el integral package), F12 methods
   Garnet Chan, S. Sharma, J. Yang, R. Olivares  : DMRG
   Ulf Ekstrom                                   : XCFun DFT Library
   Mihaly Kallay                                 : mrcc  (arbitrary order and MRCC methods)
   Andreas Klamt, Michael Diedenhofen            : otool_cosmo (COSMO solvation model)
   Jiri Pittner, Ondrej Demel                    : Mk-CCSD
   Frank Weinhold                                : gennbo (NPA and NBO analysis)
   Christopher J. Cramer and Donald G. Truhlar   : smd solvation model


 Your calculation uses the libint2 library for the computation of 2-el integrals
 For citations please refer to: http://libint.valeyev.net

 This ORCA versions uses:
   CBLAS   interface :  Fast vector & matrix operations
   LAPACKE interface :  Fast linear algebra routines
   SCALAPACK package :  Parallel linear algebra routines


Your calculation utilizes the basis: 6-31+G**
   H-He, Li-Ne : W. J. Hehre, R. Ditchfield and J.A. Pople, J. Chem. Phys. 56, 2257 (1972).
                 Note: He and Ne are unpublished basis sets taken from the Gaussian program.
                 Note: Li and B from J. D. Dill and J. A. Pople, J. Chem. Phys. 62, 2921 (1975).
   Na - Ar     : M. M. Francl, W. J. Pietro, W. J. Hehre, J. S. Binkley, M. S. Gordon, 
                 D. J. DeFrees and J. A. Pople, J. Chem. Phys. 77, 3654 (1982).
   K - Zn      : V. A. Rassolov, J. A. Pople, M. A. Ratner, and T. L. Windus, J. Chem. Phys. 109, 1223 (1998).
   Additional Pol./Diff. from the 6-311G equivalent.

================================================================================
                                        WARNINGS
                       Please study these warnings very carefully!
================================================================================

Warning: TCutStore was < 0. Adjusted to Thresh (uncritical)

WARNING: Geometry Optimization
  ===> : Switching off AutoStart
         For restart on a previous wavefunction, please use MOREAD

INFO   : the flag for use of LIBINT has been found!

================================================================================
                                       INPUT FILE
================================================================================
NAME = OEG8.inp
|  1> ! RKS B3LYP 6-31+G** NormalSCF Opt NOSOSCF CHELPG
|  2> 
|  3> *xyz 0 1
|  4> S 2.06078 -5.75969 3.29037
|  5> C 2.06078 -3.92211 3.29037
|  6> C 1.30697 -3.39504 2.06595
|  7> O 1.32198 -1.95851 2.08792
|  8> C 0.63063 -1.42700 0.96305
|  9> C 0.67275 0.09292 1.02937
| 10> O -0.01977 0.63651 -0.09545
| 11> C -0.00434 2.06005 -0.07342
| 12> C -0.75624 2.57802 -1.29096
| 13> O -0.74699 4.00433 -1.27862
| 14> C -1.44338 4.53272 -2.40351
| 15> C -1.40149 6.05196 -2.33825
| 16> O -2.09641 6.58704 -3.46187
| 17> C -2.08218 8.01188 -3.44465
| 18> C -2.83578 8.52669 -4.66114
| 19> O -2.82267 9.95213 -4.64783
| 20> C -3.51869 10.48330 -5.77183
| 21> C -3.47303 12.00269 -5.70826
| 22> O -4.16900 12.53600 -6.83182
| 23> C -4.15401 13.96131 -6.81942
| 24> C -4.90920 14.47619 -8.03671
| 25> O -4.89411 15.90197 -8.02712
| 26> C -5.59053 16.43431 -9.15276
| 27> C -5.54402 17.95549 -9.09237
| 28> O -6.23855 18.49594 -10.21480
| 29> C -6.22112 19.91704 -10.19769
| 30> H 3.07351 -3.49962 3.28056
| 31> H 1.59597 -3.49961 4.19019
| 32> H 0.26356 -3.73541 2.07435
| 33> H 1.78319 -3.73691 1.13810
| 34> H -0.41126 -1.76881 0.96123
| 35> H 1.09834 -1.77034 0.03270
| 36> H 1.71407 0.43734 1.03043
| 37> H 0.20588 0.43871 1.95964
| 38> H 1.02823 2.42898 -0.08919
| 39> H -0.47956 2.43105 0.84260
| 40> H -1.78852 2.20802 -1.27597
| 41> H -0.28141 2.20662 -2.20723
| 42> H -2.48437 4.18776 -2.40113
| 43> H -0.97746 4.18706 -3.33426
| 44> H -0.36004 6.39594 -2.33960
| 45> H -1.86630 6.39743 -1.40688
| 46> H -1.04930 8.38023 -3.46224
| 47> H -2.55515 8.38424 -2.52795
| 48> H -3.86845 8.15819 -4.64290
| 49> H -2.36333 8.15299 -5.57770
| 50> H -4.56062 10.14113 -5.76779
| 51> H -3.05535 10.13517 -6.70287
| 52> H -2.43086 12.34402 -5.71173
| 53> H -3.93597 12.35015 -4.77671
| 54> H -3.12070 14.32810 -6.83901
| 55> H -4.62495 14.33584 -5.90257
| 56> H -5.94212 14.10894 -8.01575
| 57> H -4.43817 14.09952 -8.95260
| 58> H -6.63248 16.09233 -9.14745
| 59> H -5.12735 16.08351 -10.08287
| 60> H -4.50103 18.29464 -9.09518
| 61> H -6.00550 18.30334 -8.16019
| 62> H -6.76482 20.27817 -11.07445
| 63> H -5.19267 20.28750 -10.24619
| 64> H -6.71656 20.29503 -9.29818
| 65> **                         ****END OF INPUT****
================================================================================

                       *****************************
                       * Geometry Optimization Run *
                       *****************************

Geometry optimization settings:
Update method            Update   .... BFGS
Choice of coordinates    CoordSys .... Redundant Internals
Initial Hessian          InHess   .... Almoef's Model

Convergence Tolerances:
Energy Change            TolE     ....  5.0000e-06 Eh
Max. Gradient            TolMAXG  ....  3.0000e-04 Eh/bohr
RMS Gradient             TolRMSG  ....  1.0000e-04 Eh/bohr
Max. Displacement        TolMAXD  ....  4.0000e-03 bohr
RMS Displacement         TolRMSD  ....  2.0000e-03 bohr

------------------------------------------------------------------------------
                        ORCA OPTIMIZATION COORDINATE SETUP
------------------------------------------------------------------------------

The optimization will be done in new redundant internal coordinates
Making redundant internal coordinates   ...  (new redundants) done
Evaluating the initial hessian          ...  (Almloef) done
Evaluating the coordinates              ...  done
Calculating the B-matrix                .... done
Calculating the G-matrix                .... done
Diagonalizing the G-matrix              .... done
Small eigenvalue found = 1.075e-04
Small eigenvalue found = 4.626e-04
Small eigenvalue found = 7.740e-04
Small eigenvalue found = 2.772e-03
Small eigenvalue found = 3.404e-03
Small eigenvalue found = 5.180e-03
Small eigenvalue found = 6.370e-03
Small eigenvalue found = 7.036e-03
Small eigenvalue found = 1.272e-02
Small eigenvalue found = 1.387e-02
Small eigenvalue found = 1.946e-02
Small eigenvalue found = 2.488e-02
Small eigenvalue found = 2.714e-02
The first mode is                       ....  113
The number of degrees of freedom        ....  177

    -----------------------------------------------------------------
                    Redundant Internal Coordinates


    -----------------------------------------------------------------
         Definition                    Initial Value    Approx d2E/dq
    -----------------------------------------------------------------
      1. B(C   1,S   0)                  1.8376         0.325403   
      2. B(C   2,C   1)                  1.5314         0.371636   
      3. B(O   3,C   2)                  1.4368         0.471245   
      4. B(C   4,O   3)                  1.4233         0.495151   
      5. B(C   5,C   4)                  1.5219         0.384789   
      6. B(O   6,C   5)                  1.4284         0.485992   
      7. B(C   7,O   6)                  1.4238         0.494264   
      8. B(C   8,C   7)                  1.5219         0.384918   
      9. B(O   9,C   8)                  1.4264         0.489567   
     10. B(C  10,O   9)                  1.4246         0.492773   
     11. B(C  11,C  10)                  1.5212         0.385824   
     12. B(O  12,C  11)                  1.4254         0.491369   
     13. B(C  13,O  12)                  1.4250         0.492052   
     14. B(C  14,C  13)                  1.5208         0.386436   
     15. B(O  15,C  14)                  1.4256         0.491064   
     16. B(C  16,O  15)                  1.4248         0.492501   
     17. B(C  17,C  16)                  1.5214         0.385559   
     18. B(O  18,C  17)                  1.4252         0.491727   
     19. B(C  19,O  18)                  1.4254         0.491280   
     20. B(C  20,C  19)                  1.5222         0.384381   
     21. B(O  21,C  20)                  1.4259         0.490469   
     22. B(C  22,O  21)                  1.4267         0.489029   
     23. B(C  23,C  22)                  1.5231         0.383181   
     24. B(O  24,C  23)                  1.4263         0.489750   
     25. B(C  25,O  24)                  1.4213         0.498796   
     26. B(H  26,C   1)                  1.0974         0.350484   
     27. B(H  27,C   1)                  1.0974         0.350476   
     28. B(H  28,C   2)                  1.0976         0.350243   
     29. B(H  29,C   2)                  1.0975         0.350279   
     30. B(H  30,C   4)                  1.0965         0.351568   
     31. B(H  31,C   4)                  1.0964         0.351677   
     32. B(H  32,C   5)                  1.0968         0.351214   
     33. B(H  33,C   5)                  1.0968         0.351233   
     34. B(H  34,C   7)                  1.0966         0.351458   
     35. B(H  35,C   7)                  1.0966         0.351453   
     36. B(H  36,C   8)                  1.0967         0.351359   
     37. B(H  37,C   8)                  1.0968         0.351226   
     38. B(H  38,C  10)                  1.0967         0.351397   
     39. B(H  39,C  10)                  1.0967         0.351282   
     40. B(H  40,C  11)                  1.0968         0.351232   
     41. B(H  41,C  11)                  1.0967         0.351288   
     42. B(H  42,C  13)                  1.0967         0.351297   
     43. B(H  43,C  13)                  1.0967         0.351380   
     44. B(H  44,C  14)                  1.0966         0.351474   
     45. B(H  45,C  14)                  1.0968         0.351232   
     46. B(H  46,C  16)                  1.0967         0.351366   
     47. B(H  47,C  16)                  1.0967         0.351367   
     48. B(H  48,C  17)                  1.0966         0.351412   
     49. B(H  49,C  17)                  1.0967         0.351300   
     50. B(H  50,C  19)                  1.0967         0.351405   
     51. B(H  51,C  19)                  1.0967         0.351392   
     52. B(H  52,C  20)                  1.0965         0.351648   
     53. B(H  53,C  20)                  1.0966         0.351431   
     54. B(H  54,C  22)                  1.0966         0.351411   
     55. B(H  55,C  22)                  1.0967         0.351374   
     56. B(H  56,C  23)                  1.0967         0.351281   
     57. B(H  57,C  23)                  1.0968         0.351244   
     58. B(H  58,C  25)                  1.0930         0.356103   
     59. B(H  59,C  25)                  1.0942         0.354570   
     60. B(H  60,C  25)                  1.0943         0.354478   
     61. A(H  26,C   1,H  27)          104.4773         0.288380   
     62. A(S   0,C   1,H  27)          112.6444         0.331599   
     63. A(C   2,C   1,H  27)          108.3365         0.322605   
     64. A(S   0,C   1,C   2)          110.1312         0.373244   
     65. A(C   2,C   1,H  26)          108.3373         0.322606   
     66. A(S   0,C   1,H  26)          112.6439         0.331601   
     67. A(H  28,C   2,H  29)          108.8062         0.288324   
     68. A(C   1,C   2,H  29)          110.8020         0.322575   
     69. A(O   3,C   2,H  28)          108.6555         0.333439   
     70. A(C   1,C   2,O   3)          109.0713         0.375443   
     71. A(O   3,C   2,H  29)          108.6528         0.333445   
     72. A(C   1,C   2,H  28)          110.7993         0.322570   
     73. A(C   2,O   3,C   4)          110.8676         0.392149   
     74. A(O   3,C   4,H  31)          110.2712         0.336421   
     75. A(C   5,C   4,H  31)          109.7485         0.324634   
     76. A(O   3,C   4,C   5)          108.9688         0.380958   
     77. A(C   5,C   4,H  30)          109.7352         0.324617   
     78. A(O   3,C   4,H  30)          110.2696         0.336404   
     79. A(H  30,C   4,H  31)          107.8361         0.288674   
     80. A(O   6,C   5,H  32)          109.9718         0.335304   
     81. A(H  32,C   5,H  33)          107.7170         0.288572   
     82. A(O   6,C   5,H  33)          109.9720         0.335307   
     83. A(C   4,C   5,H  33)          109.8790         0.324566   
     84. A(C   4,C   5,O   6)          109.4098         0.379727   
     85. A(C   4,C   5,H  32)          109.8720         0.324563   
     86. A(C   5,O   6,C   7)          111.2879         0.394146   
     87. A(O   6,C   7,C   8)          108.8178         0.380862   
     88. A(H  34,C   7,H  35)          107.8327         0.288631   
     89. A(C   8,C   7,H  35)          109.8178         0.324618   
     90. A(O   6,C   7,H  35)          110.2722         0.336285   
     91. A(C   8,C   7,H  34)          109.8284         0.324618   
     92. A(O   6,C   7,H  34)          110.2642         0.336286   
     93. A(H  36,C   8,H  37)          107.7386         0.288590   
     94. A(C   7,C   8,H  37)          109.8288         0.324583   
     95. A(O   9,C   8,H  37)          110.0612         0.335715   
     96. A(O   9,C   8,H  36)          110.0808         0.335736   
     97. A(C   7,C   8,H  36)          109.8334         0.324603   
     98. A(C   7,C   8,O   9)          109.2814         0.380232   
     99. A(C   8,O   9,C  10)          111.1541         0.394444   
    100. A(C  11,C  10,H  39)          109.8444         0.324717   
    101. A(O   9,C  10,H  39)          110.2147         0.336089   
    102. A(C  11,C  10,H  38)          109.8886         0.324734   
    103. A(O   9,C  10,H  38)          110.2202         0.336107   
    104. A(O   9,C  10,C  11)          108.8494         0.380818   
    105. A(H  38,C  10,H  39)          107.8158         0.288602   
    106. A(C  10,C  11,H  41)          109.8371         0.324718   
    107. A(O  12,C  11,H  40)          110.1347         0.335921   
    108. A(C  10,C  11,H  40)          109.8350         0.324709   
    109. A(C  10,C  11,O  12)          109.1268         0.380629   
    110. A(O  12,C  11,H  41)          110.1549         0.335930   
    111. A(H  40,C  11,H  41)          107.7390         0.288581   
    112. A(C  11,O  12,C  13)          111.1586         0.394597   
    113. A(O  12,C  13,C  14)          108.8965         0.380826   
    114. A(H  42,C  13,H  43)          107.7904         0.288601   
    115. A(C  14,C  13,H  43)          109.8761         0.324817   
    116. A(C  14,C  13,H  42)          109.8865         0.324804   
    117. A(O  12,C  13,H  42)          110.1836         0.336009   
    118. A(O  12,C  13,H  43)          110.1994         0.336022   
    119. A(C  13,C  14,O  15)          109.0541         0.380693   
    120. A(H  44,C  14,H  45)          107.7611         0.288605   
    121. A(O  15,C  14,H  45)          110.1534         0.335886   
    122. A(C  13,C  14,H  45)          109.8568         0.324794   
    123. A(O  15,C  14,H  44)          110.1522         0.335925   
    124. A(C  13,C  14,H  44)          109.8516         0.324831   
    125. A(C  14,O  15,C  16)          111.1568         0.394617   
    126. A(C  17,C  16,H  47)          109.8654         0.324693   
    127. A(O  15,C  16,H  47)          110.1822         0.336071   
    128. A(C  17,C  16,H  46)          109.8739         0.324693   
    129. A(O  15,C  16,H  46)          110.1757         0.336071   
    130. A(O  15,C  16,C  17)          108.9470         0.380736   
    131. A(H  46,C  16,H  47)          107.7873         0.288609   
    132. A(O  18,C  17,H  49)          110.1779         0.335973   
    133. A(H  48,C  17,H  49)          107.7713         0.288606   
    134. A(C  16,C  17,H  49)          109.8291         0.324683   
    135. A(O  18,C  17,H  48)          110.1885         0.335991   
    136. A(C  16,C  17,H  48)          109.8297         0.324700   
    137. A(C  16,C  17,O  18)          109.0328         0.380632   
    138. A(C  17,O  18,C  19)          111.2337         0.394539   
    139. A(H  50,C  19,H  51)          107.7783         0.288617   
    140. A(C  20,C  19,H  51)          109.8767         0.324534   
    141. A(O  18,C  19,H  51)          110.1356         0.335936   
    142. A(C  20,C  19,H  50)          109.8791         0.324536   
    143. A(O  18,C  19,H  50)          110.1321         0.335939   
    144. A(O  18,C  19,C  20)          109.0282         0.380370   
    145. A(H  52,C  20,H  53)          107.7914         0.288653   
    146. A(O  21,C  20,H  53)          110.1527         0.335850   
    147. A(C  19,C  20,H  53)          109.7919         0.324540   
    148. A(O  21,C  20,H  52)          110.1668         0.335885   
    149. A(C  19,C  20,H  52)          109.8024         0.324573   
    150. A(C  19,C  20,O  21)          109.1222         0.380261   
    151. A(C  20,O  21,C  22)          111.2616         0.394044   
    152. A(H  54,C  22,H  55)          107.7966         0.288615   
    153. A(C  23,C  22,H  55)          109.8894         0.324365   
    154. A(O  21,C  22,H  55)          110.0984         0.335677   
    155. A(C  23,C  22,H  54)          109.8934         0.324370   
    156. A(O  21,C  22,H  54)          110.0971         0.335683   
    157. A(O  21,C  22,C  23)          109.0548         0.379862   
    158. A(H  56,C  23,H  57)          107.7123         0.288582   
    159. A(O  24,C  23,H  57)          110.1080         0.335739   
    160. A(C  22,C  23,H  57)          109.7313         0.324345   
    161. A(O  24,C  23,H  56)          110.1140         0.335745   
    162. A(C  22,C  23,H  56)          109.7418         0.324351   
    163. A(C  22,C  23,O  24)          109.4128         0.379959   
    164. A(C  23,O  24,C  25)          111.3103         0.395311   
    165. A(H  59,C  25,H  60)          110.1836         0.289419   
    166. A(H  58,C  25,H  60)          108.6645         0.289614   
    167. A(O  24,C  25,H  60)          110.4699         0.337277   
    168. A(H  58,C  25,H  59)          108.6698         0.289626   
    169. A(O  24,C  25,H  59)          110.4571         0.337292   
    170. A(O  24,C  25,H  58)          108.3358         0.337534   
    171. D(O   3,C   2,C   1,H  27)     56.4469         0.011035   
    172. D(H  28,C   2,C   1,H  26)   -175.9026         0.011035   
    173. D(H  29,C   2,C   1,H  27)    176.0075         0.011035   
    174. D(H  29,C   2,C   1,S   0)    -60.3860         0.011035   
    175. D(O   3,C   2,C   1,S   0)   -179.9467         0.011035   
    176. D(H  29,C   2,C   1,H  26)     63.2205         0.011035   
    177. D(O   3,C   2,C   1,H  26)    -56.3402         0.011035   
    178. D(H  28,C   2,C   1,H  27)    -63.1156         0.011035   
    179. D(H  28,C   2,C   1,S   0)     60.4909         0.011035   
    180. D(C   4,O   3,C   2,H  29)     59.0750         0.017506   
    181. D(C   4,O   3,C   2,C   1)    179.9588         0.017506   
    182. D(C   4,O   3,C   2,H  28)    -59.1591         0.017506   
    183. D(H  31,C   4,O   3,C   2)    -59.4890         0.019371   
    184. D(H  30,C   4,O   3,C   2)     59.4890         0.019371   
    185. D(C   5,C   4,O   3,C   2)    179.9913         0.019371   
    186. D(H  33,C   5,C   4,H  31)   -179.9668         0.011786   
    187. D(H  33,C   5,C   4,H  30)     61.7041         0.011786   
    188. D(H  33,C   5,C   4,O   3)    -59.1262         0.011786   
    189. D(H  32,C   5,C   4,H  30)   -179.9511         0.011786   
    190. D(O   6,C   5,C   4,H  31)     59.2033         0.011786   
    191. D(H  32,C   5,C   4,H  31)    -61.6220         0.011786   
    192. D(O   6,C   5,C   4,H  30)    -59.1258         0.011786   
    193. D(O   6,C   5,C   4,O   3)   -179.9561         0.011786   
    194. D(H  32,C   5,C   4,O   3)     59.2186         0.011786   
    195. D(C   7,O   6,C   5,H  33)     59.2515         0.018643   
    196. D(C   7,O   6,C   5,H  32)    -59.2105         0.018643   
    197. D(C   7,O   6,C   5,C   4)   -179.9751         0.018643   
    198. D(H  35,C   7,O   6,C   5)    -59.4149         0.019300   
    199. D(H  34,C   7,O   6,C   5)     59.5561         0.019300   
    200. D(C   8,C   7,O   6,C   5)   -179.9254         0.019300   
    201. D(O   9,C   8,C   7,O   6)    179.9930         0.011793   
    202. D(H  37,C   8,C   7,H  34)     61.6075         0.011793   
    203. D(H  37,C   8,C   7,O   6)    -59.1793         0.011793   
    204. D(H  36,C   8,C   7,H  35)    -61.6520         0.011793   
    205. D(H  36,C   8,C   7,H  34)    179.9250         0.011793   
    206. D(H  36,C   8,C   7,O   6)     59.1382         0.011793   
    207. D(O   9,C   8,C   7,H  35)     59.2027         0.011793   
    208. D(H  37,C   8,C   7,H  35)   -179.9696         0.011793   
    209. D(O   9,C   8,C   7,H  34)    -59.2202         0.011793   
    210. D(C  10,O   9,C   8,H  37)     59.3787         0.018925   
    211. D(C  10,O   9,C   8,H  36)    -59.2314         0.018925   
    212. D(C  10,O   9,C   8,C   7)   -179.9353         0.018925   
    213. D(H  39,C  10,O   9,C   8)    -59.4809         0.019180   
    214. D(H  38,C  10,O   9,C   8)     59.4059         0.019180   
    215. D(C  11,C  10,O   9,C   8)    179.9914         0.019180   
    216. D(H  41,C  11,C  10,H  39)   -179.9290         0.011846   
    217. D(H  41,C  11,C  10,H  38)     61.6161         0.011846   
    218. D(H  41,C  11,C  10,O   9)    -59.1734         0.011846   
    219. D(H  40,C  11,C  10,H  39)    -61.6051         0.011846   
    220. D(H  40,C  11,C  10,H  38)    179.9401         0.011846   
    221. D(H  40,C  11,C  10,O   9)     59.1506         0.011846   
    222. D(O  12,C  11,C  10,H  39)     59.2199         0.011846   
    223. D(O  12,C  11,C  10,H  38)    -59.2350         0.011846   
    224. D(O  12,C  11,C  10,O   9)    179.9755         0.011846   
    225. D(C  13,O  12,C  11,H  41)     59.4227         0.019068   
    226. D(C  13,O  12,C  11,H  40)    -59.2789         0.019068   
    227. D(C  13,O  12,C  11,C  10)   -179.9206         0.019068   
    228. D(H  43,C  13,O  12,C  11)    -59.3764         0.019123   
    229. D(H  42,C  13,O  12,C  11)     59.4466         0.019123   
    230. D(C  14,C  13,O  12,C  11)   -179.9634         0.019123   
    231. D(O  15,C  14,C  13,H  43)     59.2615         0.011882   
    232. D(O  15,C  14,C  13,H  42)    -59.1802         0.011882   
    233. D(O  15,C  14,C  13,O  12)   -179.9529         0.011882   
    234. D(H  45,C  14,C  13,H  43)   -179.9227         0.011882   
    235. D(H  45,C  14,C  13,H  42)     61.6356         0.011882   
    236. D(H  45,C  14,C  13,O  12)    -59.1370         0.011882   
    237. D(H  44,C  14,C  13,H  43)    -61.5496         0.011882   
    238. D(H  44,C  14,C  13,H  42)   -179.9914         0.011882   
    239. D(H  44,C  14,C  13,O  12)     59.2360         0.011882   
    240. D(C  16,O  15,C  14,H  45)     59.3624         0.019044   
    241. D(C  16,O  15,C  14,H  44)    -59.3765         0.019044   
    242. D(C  16,O  15,C  14,C  13)    179.9965         0.019044   
    243. D(H  47,C  16,O  15,C  14)    -59.3702         0.019159   
    244. D(H  46,C  16,O  15,C  14)     59.4333         0.019159   
    245. D(C  17,C  16,O  15,C  14)   -179.9653         0.019159   
    246. D(H  49,C  17,C  16,H  47)   -179.9656         0.011831   
    247. D(H  49,C  17,C  16,H  46)     61.6107         0.011831   
    248. D(H  49,C  17,C  16,O  15)    -59.1761         0.011831   
    249. D(H  48,C  17,C  16,H  47)    -61.6101         0.011831   
    250. D(H  48,C  17,C  16,H  46)    179.9662         0.011831   
    251. D(H  48,C  17,C  16,O  15)     59.1794         0.011831   
    252. D(O  18,C  17,C  16,H  47)     59.2189         0.011831   
    253. D(O  18,C  17,C  16,H  46)    -59.2049         0.011831   
    254. D(O  18,C  17,C  16,O  15)   -179.9916         0.011831   
    255. D(C  19,O  18,C  17,H  49)     59.4534         0.019097   
    256. D(C  19,O  18,C  17,H  48)    -59.3358         0.019097   
    257. D(C  19,O  18,C  17,C  16)   -179.9448         0.019097   
    258. D(H  51,C  19,O  18,C  17)    -59.3403         0.019061   
    259. D(H  50,C  19,O  18,C  17)     59.3963         0.019061   
    260. D(C  20,C  19,O  18,C  17)   -179.9716         0.019061   
    261. D(H  53,C  20,C  19,H  51)   -179.9058         0.011762   
    262. D(H  53,C  20,C  19,H  50)     61.6714         0.011762   
    263. D(H  53,C  20,C  19,O  18)    -59.1158         0.011762   
    264. D(H  52,C  20,C  19,H  51)    -61.5647         0.011762   
    265. D(H  52,C  20,C  19,H  50)   -179.9875         0.011762   
    266. D(H  52,C  20,C  19,O  18)     59.2253         0.011762   
    267. D(O  21,C  20,C  19,H  51)     59.2767         0.011762   
    268. D(O  21,C  20,C  19,H  50)    -59.1461         0.011762   
    269. D(O  21,C  20,C  19,O  18)   -179.9333         0.011762   
    270. D(C  22,O  21,C  20,H  53)     59.3464         0.018997   
    271. D(C  22,O  21,C  20,H  52)    -59.4383         0.018997   
    272. D(C  22,O  21,C  20,C  19)    179.9432         0.018997   
    273. D(H  55,C  22,O  21,C  20)    -59.3855         0.018882   
    274. D(H  54,C  22,O  21,C  20)     59.3290         0.018882   
    275. D(C  23,C  22,O  21,C  20)    179.9738         0.018882   
    276. D(H  57,C  23,C  22,H  55)   -179.8561         0.011692   
    277. D(H  57,C  23,C  22,H  54)     61.6823         0.011692   
    278. D(H  57,C  23,C  22,O  21)    -59.0874         0.011692   
    279. D(H  56,C  23,C  22,H  55)    -61.6844         0.011692   
    280. D(H  56,C  23,C  22,H  54)    179.8540         0.011692   
    281. D(H  56,C  23,C  22,O  21)     59.0844         0.011692   
    282. D(O  24,C  23,C  22,H  55)     59.2368         0.011692   
    283. D(O  24,C  23,C  22,H  54)    -59.2248         0.011692   
    284. D(O  24,C  23,C  22,O  21)   -179.9945         0.011692   
    285. D(C  25,O  24,C  23,H  57)     59.2636         0.018940   
    286. D(C  25,O  24,C  23,H  56)    -59.3634         0.018940   
    287. D(C  25,O  24,C  23,C  22)    179.9417         0.018940   
    288. D(H  60,C  25,O  24,C  23)    -61.0389         0.019666   
    289. D(H  59,C  25,O  24,C  23)     61.1235         0.019666   
    290. D(H  58,C  25,O  24,C  23)   -179.9582         0.019666   
    -----------------------------------------------------------------

Number of atoms                         .... 61
Number of degrees of freedom            .... 290

         *************************************************************
         *                GEOMETRY OPTIMIZATION CYCLE   1            *
         *************************************************************
---------------------------------
CARTESIAN COORDINATES (ANGSTROEM)
---------------------------------
  S      2.060780   -5.759690    3.290370
  C      2.060780   -3.922110    3.290370
  C      1.306970   -3.395040    2.065950
  O      1.321980   -1.958510    2.087920
  C      0.630630   -1.427000    0.963050
  C      0.672750    0.092920    1.029370
  O     -0.019770    0.636510   -0.095450
  C     -0.004340    2.060050   -0.073420
  C     -0.756240    2.578020   -1.290960
  O     -0.746990    4.004330   -1.278620
  C     -1.443380    4.532720   -2.403510
  C     -1.401490    6.051960   -2.338250
  O     -2.096410    6.587040   -3.461870
  C     -2.082180    8.011880   -3.444650
  C     -2.835780    8.526690   -4.661140
  O     -2.822670    9.952130   -4.647830
  C     -3.518690   10.483300   -5.771830
  C     -3.473030   12.002690   -5.708260
  O     -4.169000   12.536000   -6.831820
  C     -4.154010   13.961310   -6.819420
  C     -4.909200   14.476190   -8.036710
  O     -4.894110   15.901970   -8.027120
  C     -5.590530   16.434310   -9.152760
  C     -5.544020   17.955490   -9.092370
  O     -6.238550   18.495940  -10.214800
  C     -6.221120   19.917040  -10.197690
  H      3.073510   -3.499620    3.280560
  H      1.595970   -3.499610    4.190190
  H      0.263560   -3.735410    2.074350
  H      1.783190   -3.736910    1.138100
  H     -0.411260   -1.768810    0.961230
  H      1.098340   -1.770340    0.032700
  H      1.714070    0.437340    1.030430
  H      0.205880    0.438710    1.959640
  H      1.028230    2.428980   -0.089190
  H     -0.479560    2.431050    0.842600
  H     -1.788520    2.208020   -1.275970
  H     -0.281410    2.206620   -2.207230
  H     -2.484370    4.187760   -2.401130
  H     -0.977460    4.187060   -3.334260
  H     -0.360040    6.395940   -2.339600
  H     -1.866300    6.397430   -1.406880
  H     -1.049300    8.380230   -3.462240
  H     -2.555150    8.384240   -2.527950
  H     -3.868450    8.158190   -4.642900
  H     -2.363330    8.152990   -5.577700
  H     -4.560620   10.141130   -5.767790
  H     -3.055350   10.135170   -6.702870
  H     -2.430860   12.344020   -5.711730
  H     -3.935970   12.350150   -4.776710
  H     -3.120700   14.328100   -6.839010
  H     -4.624950   14.335840   -5.902570
  H     -5.942120   14.108940   -8.015750
  H     -4.438170   14.099520   -8.952600
  H     -6.632480   16.092330   -9.147450
  H     -5.127350   16.083510  -10.082870
  H     -4.501030   18.294640   -9.095180
  H     -6.005500   18.303340   -8.160190
  H     -6.764820   20.278170  -11.074450
  H     -5.192670   20.287500  -10.246190
  H     -6.716560   20.295030   -9.298180

----------------------------
CARTESIAN COORDINATES (A.U.)
----------------------------
  NO LB      ZA    FRAG     MASS         X           Y           Z
   0 S    16.0000    0    32.060    3.894310  -10.884237    6.217898
   1 C     6.0000    0    12.011    3.894310   -7.411714    6.217898
   2 C     6.0000    0    12.011    2.469815   -6.415696    3.904080
   3 O     8.0000    0    15.999    2.498180   -3.701048    3.945597
   4 C     6.0000    0    12.011    1.191718   -2.696639    1.819901
   5 C     6.0000    0    12.011    1.271313    0.175593    1.945227
   6 O     8.0000    0    15.999   -0.037360    1.202830   -0.180374
   7 C     6.0000    0    12.011   -0.008201    3.892930   -0.138744
   8 C     6.0000    0    12.011   -1.429086    4.871752   -2.439561
   9 O     8.0000    0    15.999   -1.411607    7.567087   -2.416242
  10 C     6.0000    0    12.011   -2.727593    8.565599   -4.541976
  11 C     6.0000    0    12.011   -2.648432   11.436547   -4.418652
  12 O     8.0000    0    15.999   -3.961641   12.447702   -6.541986
  13 C     6.0000    0    12.011   -3.934750   15.140259   -6.509445
  14 C     6.0000    0    12.011   -5.358848   16.113109   -8.808278
  15 O     8.0000    0    15.999   -5.334073   18.806800   -8.783126
  16 C     6.0000    0    12.011   -6.649360   19.810566  -10.907178
  17 C     6.0000    0    12.011   -6.563076   22.681797  -10.787048
  18 O     8.0000    0    15.999   -7.878268   23.689607  -12.910269
  19 C     6.0000    0    12.011   -7.849941   26.383052  -12.886836
  20 C     6.0000    0    12.011   -9.277044   27.356035  -15.187181
  21 O     8.0000    0    15.999   -9.248528   30.050368  -15.169058
  22 C     6.0000    0    12.011  -10.564571   31.056345  -17.296210
  23 C     6.0000    0    12.011  -10.476679   33.930959  -17.182089
  24 O     8.0000    0    15.999  -11.789151   34.952261  -19.303175
  25 C     6.0000    0    12.011  -11.756213   37.637751  -19.270841
  26 H     1.0000    0     1.008    5.808092   -6.613323    6.199360
  27 H     1.0000    0     1.008    3.015946   -6.613304    7.918312
  28 H     1.0000    0     1.008    0.498056   -7.058902    3.919953
  29 H     1.0000    0     1.008    3.369741   -7.061736    2.150697
  30 H     1.0000    0     1.008   -0.777169   -3.342566    1.816461
  31 H     1.0000    0     1.008    2.075562   -3.345458    0.061794
  32 H     1.0000    0     1.008    3.239123    0.826453    1.947231
  33 H     1.0000    0     1.008    0.389057    0.829042    3.703183
  34 H     1.0000    0     1.008    1.943073    4.590107   -0.168545
  35 H     1.0000    0     1.008   -0.906237    4.594019    1.592283
  36 H     1.0000    0     1.008   -3.379813    4.172553   -2.411234
  37 H     1.0000    0     1.008   -0.531788    4.169907   -4.171060
  38 H     1.0000    0     1.008   -4.694779    7.913720   -4.537478
  39 H     1.0000    0     1.008   -1.847132    7.912397   -6.300838
  40 H     1.0000    0     1.008   -0.680377   12.086575   -4.421203
  41 H     1.0000    0     1.008   -3.526796   12.089391   -2.658618
  42 H     1.0000    0     1.008   -1.982890   15.836340   -6.542685
  43 H     1.0000    0     1.008   -4.828534   15.843917   -4.777133
  44 H     1.0000    0     1.008   -7.310311   15.416745   -8.773809
  45 H     1.0000    0     1.008   -4.466046   15.406918  -10.540325
  46 H     1.0000    0     1.008   -8.618323   19.163958  -10.899543
  47 H     1.0000    0     1.008   -5.773775   19.152696  -12.666589
  48 H     1.0000    0     1.008   -4.593660   23.326817  -10.793605
  49 H     1.0000    0     1.008   -7.437905   23.338401   -9.026674
  50 H     1.0000    0     1.008   -5.897268   27.076185  -12.923856
  51 H     1.0000    0     1.008   -8.739889   27.090811  -11.154241
  52 H     1.0000    0     1.008  -11.228979   26.662033  -15.147572
  53 H     1.0000    0     1.008   -8.386926   26.644231  -16.917962
  54 H     1.0000    0     1.008  -12.533571   30.410097  -17.286175
  55 H     1.0000    0     1.008   -9.689287   30.393429  -19.053863
  56 H     1.0000    0     1.008   -8.505714   34.571859  -17.187399
  57 H     1.0000    0     1.008  -11.348750   34.588300  -15.420524
  58 H     1.0000    0     1.008  -12.783657   38.320188  -20.927678
  59 H     1.0000    0     1.008   -9.812724   38.337819  -19.362493
  60 H     1.0000    0     1.008  -12.692459   38.352049  -17.571014

--------------------------------
INTERNAL COORDINATES (ANGSTROEM)
--------------------------------
 S      0   0   0     0.000000000000     0.00000000     0.00000000
 C      1   0   0     1.837580000000     0.00000000     0.00000000
 C      2   1   0     1.531416546012   110.13123206     0.00000000
 O      3   2   1     1.436776399409   109.07129079   180.05332979
 C      4   3   2     1.423306087776   110.86761515   179.95877875
 C      5   4   3     1.521949159203   108.96884171   179.99130644
 O      6   5   4     1.428388627405   109.40977005   180.04388231
 C      7   6   5     1.423794064252   111.28794636   180.02485337
 C      8   7   6     1.521857477723   108.81781444   180.07460264
 O      9   8   7     1.426393372881   109.28144277   179.99297193
 C     10   9   8     1.424616627834   111.15406938   180.06468617
 C     11  10   9     1.521217873054   108.84944842   179.99141164
 O     12  11  10     1.425393390331   109.12683674   179.97552314
 C     13  12  11     1.425015104095   111.15860265   180.07943225
 C     14  13  12     1.520786052080   108.89650128   180.03662509
 O     15  14  13     1.425562422976   109.05411709   180.04714343
 C     16  15  14     1.424767142132   111.15680016   179.99652120
 C     17  16  15     1.521404598586   108.94701940   180.03474322
 O     18  17  16     1.425195028970   109.03282170   180.00838106
 C     19  18  17     1.425442757953   111.23372574   180.05517210
 C     20  19  18     1.522237923125   109.02822568   180.02837446
 O     21  20  19     1.425892101318   109.12218558   180.06668240
 C     22  21  20     1.426692714497   111.26162225   179.94323162
 C     23  22  21     1.523088547853   109.05478394   179.97384324
 O     24  23  22     1.426291424745   109.41284462   180.00552825
 C     25  24  23     1.421309877191   111.31029648   179.94170225
 H      2   1   3     1.097367800284   112.64393243   238.93660085
 H      2   1   3     1.097374420378   112.64435397   121.06259583
 H      3   2   1     1.097554884732   110.79928154    60.49091740
 H      3   2   1     1.097527315287   110.80202821   299.61398525
 H      5   4   3     1.096527318675   110.26955327    59.48900411
 H      5   4   3     1.096442484675   110.27120497   300.51101703
 H      6   5   4     1.096801532822   109.87204347    59.21858809
 H      6   5   4     1.096786485101   109.87898981   300.87375950
 H      8   7   6     1.096612439607   110.26415163    59.55608053
 H      8   7   6     1.096616472975   110.27224415   300.58507260
 H      9   8   7     1.096688970721   109.83344175    59.13821894
 H      9   8   7     1.096791776866   109.82877283   300.82067601
 H     11  10   9     1.096660041262   110.22024503    59.40590643
 H     11  10   9     1.096748760884   110.21469565   300.51913513
 H     12  11  10     1.096787201512   109.83498229    59.15056422
 H     12  11  10     1.096744242702   109.83709675   300.82659660
 H     14  13  12     1.096737081073   110.18358132    59.44661698
 H     14  13  12     1.096672914091   110.19941711   300.62355011
 H     15  14  13     1.096600326692   109.85158544    59.23601360
 H     15  14  13     1.096787548297   109.85679775   300.86295114
 H     17  16  15     1.096683525635   110.17569294    59.43331436
 H     17  16  15     1.096683151188   110.18218996   300.62975699
 H     18  17  16     1.096647855376   109.82966383    59.17942326
 H     18  17  16     1.096734834725   109.82911153   300.82392764
 H     20  19  18     1.096653194178   110.13206226    59.39625310
 H     20  19  18     1.096663634393   110.13557276   300.65969513
 H     21  20  19     1.096465052111   109.80240279    59.22530674
 H     21  20  19     1.096633047970   109.79194554   300.88421551
 H     23  22  21     1.096648676195   110.09706444    59.32897273
 H     23  22  21     1.096677238070   110.09840168   300.61452891
 H     24  23  22     1.096749177661   109.74184774    59.08437448
 H     24  23  22     1.096778448594   109.73129319   300.91262538
 H     26  25  24     1.093038272203   108.33582037   180.04184087
 H     26  25  24     1.094213079843   110.45708244    61.12354367
 H     26  25  24     1.094283086683   110.46986752   298.96111933

---------------------------
INTERNAL COORDINATES (A.U.)
---------------------------
 S      0   0   0     0.000000000000     0.00000000     0.00000000
 C      1   0   0     3.472522949171     0.00000000     0.00000000
 C      2   1   0     2.893957868919   110.13123206     0.00000000
 O      3   2   1     2.715113910565   109.07129079   180.05332979
 C      4   3   2     2.689658710639   110.86761515   179.95877875
 C      5   4   3     2.876067100646   108.96884171   179.99130644
 O      6   5   4     2.699263318603   109.40977005   180.04388231
 C      7   6   5     2.690580852539   111.28794636   180.02485337
 C      8   7   6     2.875893847756   108.81781444   180.07460264
 O      9   8   7     2.695492833986   109.28144277   179.99297193
 C     10   9   8     2.692135272436   111.15406938   180.06468617
 C     11  10   9     2.874685170099   108.84944842   179.99141164
 O     12  11  10     2.693603140828   109.12683674   179.97552314
 C     13  12  11     2.692888283442   111.15860265   180.07943225
 C     14  13  12     2.873869146718   108.89650128   180.03662509
 O     15  14  13     2.693922566233   109.05411709   180.04714343
 C     16  15  14     2.692419703240   111.15680016   179.99652120
 C     17  16  15     2.875038030217   108.94701940   180.03474322
 O     18  17  16     2.693228292179   109.03282170   180.00838106
 C     19  18  17     2.693696432112   111.23372574   180.05517210
 C     20  19  18     2.876612785375   109.02822568   180.02837446
 O     21  20  19     2.694545568012   109.12218558   180.06668240
 C     22  21  20     2.696058507661   111.26162225   179.94323162
 C     23  22  21     2.878220233153   109.05478394   179.97384324
 O     24  23  22     2.695300179928   109.41284462   180.00552825
 C     25  24  23     2.685886419328   111.31029648   179.94170225
 H      2   1   3     2.073724610720   112.64393243   238.93660085
 H      2   1   3     2.073737120885   112.64435397   121.06259583
 H      3   2   1     2.074078149092   110.79928154    60.49091740
 H      3   2   1     2.074026050389   110.80202821   299.61398525
 H      5   4   3     2.072136330658   110.26955327    59.48900411
 H      5   4   3     2.071976017632   110.27120497   300.51101703
 H      6   5   4     2.072654520298   109.87204347    59.21858809
 H      6   5   4     2.072626084227   109.87898981   300.87375950
 H      8   7   6     2.072297185908   110.26415163    59.55608053
 H      8   7   6     2.072304807869   110.27224415   300.58507260
 H      9   8   7     2.072441808754   109.83344175    59.13821894
 H      9   8   7     2.072636084213   109.82877283   300.82067601
 H     11  10   9     2.072387139999   110.22024503    59.40590643
 H     11  10   9     2.072554795788   110.21469565   300.51913513
 H     12  11  10     2.072627438047   109.83498229    59.15056422
 H     12  11  10     2.072546257662   109.83709675   300.82659660
 H     14  13  12     2.072532724144   110.18358132    59.44661698
 H     14  13  12     2.072411466121   110.19941711   300.62355011
 H     15  14  13     2.072274295816   109.85158544    59.23601360
 H     15  14  13     2.072628093377   109.85679775   300.86295114
 H     17  16  15     2.072431519034   110.17569294    59.43331436
 H     17  16  15     2.072430811431   110.18218996   300.62975699
 H     18  17  16     2.072364112012   109.82966383    59.17942326
 H     18  17  16     2.072528479162   109.82911153   300.82392764
 H     20  19  18     2.072374200886   110.13206226    59.39625310
 H     20  19  18     2.072393930033   110.13557276   300.65969513
 H     21  20  19     2.072018663905   109.80240279    59.22530674
 H     21  20  19     2.072336130071   109.79194554   300.88421551
 H     23  22  21     2.072365663136   110.09706444    59.32897273
 H     23  22  21     2.072419637257   110.09840168   300.61452891
 H     24  23  22     2.072555583383   109.74184774    59.08437448
 H     24  23  22     2.072610897429   109.73129319   300.91262538
 H     26  25  24     2.065542988358   108.33582037   180.04184087
 H     26  25  24     2.067763053058   110.45708244    61.12354367
 H     26  25  24     2.067895346812   110.46986752   298.96111933

---------------------
BASIS SET INFORMATION
---------------------
There are 4 groups of distinct atoms

 Group   1 Type S   : 17s11p1d contracted to 5s4p1d pattern {66311/6311/1}
 Group   2 Type C   : 11s5p1d contracted to 4s3p1d pattern {6311/311/1}
 Group   3 Type O   : 11s5p1d contracted to 4s3p1d pattern {6311/311/1}
 Group   4 Type H   : 4s1p contracted to 2s1p pattern {31/1}

Atom   0S    basis set group =>   1
Atom   1C    basis set group =>   2
Atom   2C    basis set group =>   2
Atom   3O    basis set group =>   3
Atom   4C    basis set group =>   2
Atom   5C    basis set group =>   2
Atom   6O    basis set group =>   3
Atom   7C    basis set group =>   2
Atom   8C    basis set group =>   2
Atom   9O    basis set group =>   3
Atom  10C    basis set group =>   2
Atom  11C    basis set group =>   2
Atom  12O    basis set group =>   3
Atom  13C    basis set group =>   2
Atom  14C    basis set group =>   2
Atom  15O    basis set group =>   3
Atom  16C    basis set group =>   2
Atom  17C    basis set group =>   2
Atom  18O    basis set group =>   3
Atom  19C    basis set group =>   2
Atom  20C    basis set group =>   2
Atom  21O    basis set group =>   3
Atom  22C    basis set group =>   2
Atom  23C    basis set group =>   2
Atom  24O    basis set group =>   3
Atom  25C    basis set group =>   2
Atom  26H    basis set group =>   4
Atom  27H    basis set group =>   4
Atom  28H    basis set group =>   4
Atom  29H    basis set group =>   4
Atom  30H    basis set group =>   4
Atom  31H    basis set group =>   4
Atom  32H    basis set group =>   4
Atom  33H    basis set group =>   4
Atom  34H    basis set group =>   4
Atom  35H    basis set group =>   4
Atom  36H    basis set group =>   4
Atom  37H    basis set group =>   4
Atom  38H    basis set group =>   4
Atom  39H    basis set group =>   4
Atom  40H    basis set group =>   4
Atom  41H    basis set group =>   4
Atom  42H    basis set group =>   4
Atom  43H    basis set group =>   4
Atom  44H    basis set group =>   4
Atom  45H    basis set group =>   4
Atom  46H    basis set group =>   4
Atom  47H    basis set group =>   4
Atom  48H    basis set group =>   4
Atom  49H    basis set group =>   4
Atom  50H    basis set group =>   4
Atom  51H    basis set group =>   4
Atom  52H    basis set group =>   4
Atom  53H    basis set group =>   4
Atom  54H    basis set group =>   4
Atom  55H    basis set group =>   4
Atom  56H    basis set group =>   4
Atom  57H    basis set group =>   4
Atom  58H    basis set group =>   4
Atom  59H    basis set group =>   4
Atom  60H    basis set group =>   4
[file orca_main/mainfcts.cpp, line 334]: Error : multiplicity (1) is odd and number of electrons (217) is odd -> impossible

