
                                 *****************
                                 * O   R   C   A *
                                 *****************

           --- An Ab Initio, DFT and Semiempirical electronic structure package ---

                  #######################################################
                  #                        -***-                        #
                  #  Department of molecular theory and spectroscopy    #
                  #              Directorship: Frank Neese              #
                  # Max Planck Institute for Chemical Energy Conversion #
                  #                  D-45470 Muelheim/Ruhr              #
                  #                       Germany                       #
                  #                                                     #
                  #                  All rights reserved                #
                  #                        -***-                        #
                  #######################################################


                         Program Version 4.0.1.2 - RELEASE -


 With contributions from (in alphabetic order):
   Daniel Aravena         : Magnetic Properties
   Michael Atanasov       : Ab Initio Ligand Field Theory
   Ute Becker             : Parallelization
   Martin Brehm           : Molecular dynamics
   Dmytro Bykov           : SCF Hessian
   Vijay G. Chilkuri      : MRCI spin determinant printing
   Dipayan Datta          : RHF DLPNO-CCSD density
   Achintya Kumar Dutta   : EOM-CC, STEOM-CC
   Dmitry Ganyushin       : Spin-Orbit,Spin-Spin,Magnetic field MRCI
   Yang Guo               : DLPNO-NEVPT2, CIM, IAO-localization
   Andreas Hansen         : Spin unrestricted coupled pair/coupled cluster methods
   Lee Huntington         : MR-EOM, pCC
   Robert Izsak           : Overlap fitted RIJCOSX, COSX-SCS-MP3, EOM
   Christian Kollmar      : KDIIS, OOCD, Brueckner-CCSD(T), CCSD density
   Simone Kossmann        : Meta GGA functionals, TD-DFT gradient, OOMP2, MP2 Hessian
   Martin Krupicka        : AUTO-CI
   Dagmar Lenk            : GEPOL surface
   Dimitrios Liakos       : Extrapolation schemes; parallel MDCI
   Dimitrios Manganas     : ROCIS; embedding schemes
   Dimitrios Pantazis     : SARC Basis sets
   Taras Petrenko         : DFT Hessian,TD-DFT gradient, ASA, ECA, R-Raman, ABS, FL, XAS/XES, NRVS
   Peter Pinski           : DLPNO-MP2
   Christoph Reimann      : Effective Core Potentials
   Marius Retegan         : Local ZFS, SOC
   Christoph Riplinger    : Optimizer, TS searches, QM/MM, DLPNO-CCSD(T), (RO)-DLPNO pert. Triples
   Tobias Risthaus        : Range-separated hybrids, TD-DFT gradient, RPA, STAB
   Michael Roemelt        : Restricted open shell CIS
   Masaaki Saitow         : Open-shell DLPNO
   Barbara Sandhoefer     : DKH picture change effects
   Kantharuban Sivalingam : CASSCF convergence, NEVPT2, FIC-MRCI
   Georgi Stoychev        : AutoAux
   Boris Wezisla          : Elementary symmetry handling
   Frank Wennmohs         : Technical directorship


 We gratefully acknowledge several colleagues who have allowed us to
 interface, adapt or use parts of their codes:
   Stefan Grimme, W. Hujo, H. Kruse,             : VdW corrections, initial TS optimization,
                  C. Bannwarth                     DFT functionals, gCP, sTDA/sTD-DF
   Ed Valeev                                     : LibInt (2-el integral package), F12 methods
   Garnet Chan, S. Sharma, J. Yang, R. Olivares  : DMRG
   Ulf Ekstrom                                   : XCFun DFT Library
   Mihaly Kallay                                 : mrcc  (arbitrary order and MRCC methods)
   Andreas Klamt, Michael Diedenhofen            : otool_cosmo (COSMO solvation model)
   Jiri Pittner, Ondrej Demel                    : Mk-CCSD
   Frank Weinhold                                : gennbo (NPA and NBO analysis)
   Christopher J. Cramer and Donald G. Truhlar   : smd solvation model


 Your calculation uses the libint2 library for the computation of 2-el integrals
 For citations please refer to: http://libint.valeyev.net

 This ORCA versions uses:
   CBLAS   interface :  Fast vector & matrix operations
   LAPACKE interface :  Fast linear algebra routines
   SCALAPACK package :  Parallel linear algebra routines


Your calculation utilizes the basis: 6-31+G**
   H-He, Li-Ne : W. J. Hehre, R. Ditchfield and J.A. Pople, J. Chem. Phys. 56, 2257 (1972).
                 Note: He and Ne are unpublished basis sets taken from the Gaussian program.
                 Note: Li and B from J. D. Dill and J. A. Pople, J. Chem. Phys. 62, 2921 (1975).
   Na - Ar     : M. M. Francl, W. J. Pietro, W. J. Hehre, J. S. Binkley, M. S. Gordon, 
                 D. J. DeFrees and J. A. Pople, J. Chem. Phys. 77, 3654 (1982).
   K - Zn      : V. A. Rassolov, J. A. Pople, M. A. Ratner, and T. L. Windus, J. Chem. Phys. 109, 1223 (1998).
   Additional Pol./Diff. from the 6-311G equivalent.

================================================================================
                                        WARNINGS
                       Please study these warnings very carefully!
================================================================================

Warning: TCutStore was < 0. Adjusted to Thresh (uncritical)

WARNING: Geometry Optimization
  ===> : Switching off AutoStart
         For restart on a previous wavefunction, please use MOREAD

INFO   : the flag for use of LIBINT has been found!

================================================================================
                                       INPUT FILE
================================================================================
NAME = OEG7.inp
|  1> ! RKS B3LYP 6-31+G** NormalSCF Opt NOSOSCF CHELPG
|  2> 
|  3> *xyz 0 1
|  4> S -4.98945 2.12246 2.85868
|  5> C -3.15247 2.09664 2.81192
|  6> C -2.66714 1.22997 1.64646
|  7> O -1.23006 1.22520 1.63195
|  8> C -0.73704 0.42933 0.55974
|  9> C 0.78498 0.45340 0.58379
| 10> O 1.29041 -0.34180 -0.49007
| 11> C 2.71477 -0.34722 -0.50459
| 12> C 3.19165 -1.20807 -1.66606
| 13> O 4.61780 -1.22194 -1.68929
| 14> C 5.10833 -2.01892 -2.76398
| 15> C 6.62987 -1.99926 -2.73908
| 16> O 7.12728 -2.79595 -3.81222
| 17> C 8.55260 -2.80722 -3.82809
| 18> C 9.02873 -3.66808 -4.98944
| 19> O 10.45453 -3.68059 -5.00916
| 20> C 10.94977 -4.47653 -6.08308
| 21> C 12.47171 -4.45507 -6.05757
| 22> O 12.97029 -5.25152 -7.13061
| 23> C 14.39728 -5.26234 -7.14763
| 24> C 14.87530 -6.12388 -8.30922
| 25> O 16.30162 -6.13895 -8.33234
| 26> C 16.79241 -6.93372 -9.40442
| 27> H -2.71190 1.70768 3.73864
| 28> H -2.71877 3.09860 2.70139
| 29> H -3.02684 1.62776 0.68887
| 30> H -3.02069 0.19667 1.75548
| 31> H -1.09810 0.81841 -0.39997
| 32> H -1.09244 -0.60344 0.65772
| 33> H 1.14836 0.06320 1.54221
| 34> H 1.14270 1.48558 0.48629
| 35> H 3.10235 -0.74854 0.43949
| 36> H 3.09698 0.67441 -0.61717
| 37> H 2.80384 -0.80645 -2.61035
| 38> H 2.80699 -2.22909 -1.55477
| 39> H 4.74642 -1.62675 -3.72208
| 40> H 4.74773 -3.05002 -2.66622
| 41> H 6.99112 -2.39015 -1.78020
| 42> H 6.99000 -0.96784 -2.83665
| 43> H 8.93791 -3.20959 -2.88364
| 44> H 8.93737 -1.78622 -3.93919
| 45> H 8.64164 -3.26610 -5.93346
| 46> H 8.64392 -4.68896 -4.87764
| 47> H 10.58765 -4.08505 -7.04142
| 48> H 10.59014 -5.50801 -5.98544
| 49> H 12.83272 -4.84513 -5.09820
| 50> H 12.83024 -3.42305 -6.15508
| 51> H 14.78235 -5.66367 -6.20237
| 52> H 14.78062 -4.24075 -7.25847
| 53> H 14.48703 -5.72174 -9.25283
| 54> H 14.48911 -7.14424 -8.19696
| 55> H 17.88477 -6.91185 -9.37729
| 56> H 16.45772 -6.52952 -10.36470
| 57> H 16.46001 -7.97061 -9.29533
| 58> **                         ****END OF INPUT****
================================================================================

                       *****************************
                       * Geometry Optimization Run *
                       *****************************

Geometry optimization settings:
Update method            Update   .... BFGS
Choice of coordinates    CoordSys .... Redundant Internals
Initial Hessian          InHess   .... Almoef's Model

Convergence Tolerances:
Energy Change            TolE     ....  5.0000e-06 Eh
Max. Gradient            TolMAXG  ....  3.0000e-04 Eh/bohr
RMS Gradient             TolRMSG  ....  1.0000e-04 Eh/bohr
Max. Displacement        TolMAXD  ....  4.0000e-03 bohr
RMS Displacement         TolRMSD  ....  2.0000e-03 bohr

------------------------------------------------------------------------------
                        ORCA OPTIMIZATION COORDINATE SETUP
------------------------------------------------------------------------------

The optimization will be done in new redundant internal coordinates
Making redundant internal coordinates   ...  (new redundants) done
Evaluating the initial hessian          ...  (Almloef) done
Evaluating the coordinates              ...  done
Calculating the B-matrix                .... done
Calculating the G-matrix                .... done
Diagonalizing the G-matrix              .... done
Small eigenvalue found = 1.729e-04
Small eigenvalue found = 7.511e-04
Small eigenvalue found = 1.228e-03
Small eigenvalue found = 4.303e-03
Small eigenvalue found = 5.406e-03
Small eigenvalue found = 6.647e-03
Small eigenvalue found = 8.291e-03
Small eigenvalue found = 1.067e-02
Small eigenvalue found = 2.012e-02
Small eigenvalue found = 2.016e-02
Small eigenvalue found = 2.790e-02
The first mode is                       ....   99
The number of degrees of freedom        ....  156

    -----------------------------------------------------------------
                    Redundant Internal Coordinates


    -----------------------------------------------------------------
         Definition                    Initial Value    Approx d2E/dq
    -----------------------------------------------------------------
      1. B(C   1,S   0)                  1.8378         0.325192   
      2. B(C   2,C   1)                  1.5313         0.371759   
      3. B(O   3,C   2)                  1.4372         0.470579   
      4. B(C   4,O   3)                  1.4234         0.494952   
      5. B(C   5,C   4)                  1.5224         0.384151   
      6. B(O   6,C   5)                  1.4286         0.485565   
      7. B(C   7,O   6)                  1.4244         0.493085   
      8. B(C   8,C   7)                  1.5223         0.384250   
      9. B(O   9,C   8)                  1.4264         0.489543   
     10. B(C  10,O   9)                  1.4250         0.491997   
     11. B(C  11,C  10)                  1.5219         0.384899   
     12. B(O  12,C  11)                  1.4261         0.490095   
     13. B(C  13,O  12)                  1.4255         0.491261   
     14. B(C  14,C  13)                  1.5220         0.384703   
     15. B(O  15,C  14)                  1.4260         0.490291   
     16. B(C  16,O  15)                  1.4255         0.491153   
     17. B(C  17,C  16)                  1.5223         0.384286   
     18. B(O  18,C  17)                  1.4263         0.489736   
     19. B(C  19,O  18)                  1.4271         0.488239   
     20. B(C  20,C  19)                  1.5232         0.383067   
     21. B(O  21,C  20)                  1.4266         0.489219   
     22. B(C  22,O  21)                  1.4219         0.497657   
     23. B(H  23,C   1)                  1.0974         0.350492   
     24. B(H  24,C   1)                  1.0974         0.350472   
     25. B(H  25,C   2)                  1.0975         0.350259   
     26. B(H  26,C   2)                  1.0975         0.350264   
     27. B(H  27,C   4)                  1.0967         0.351321   
     28. B(H  28,C   4)                  1.0966         0.351479   
     29. B(H  29,C   5)                  1.0968         0.351275   
     30. B(H  30,C   5)                  1.0968         0.351278   
     31. B(H  31,C   7)                  1.0966         0.351455   
     32. B(H  32,C   7)                  1.0966         0.351501   
     33. B(H  33,C   8)                  1.0970         0.350976   
     34. B(H  34,C   8)                  1.0967         0.351298   
     35. B(H  35,C  10)                  1.0967         0.351356   
     36. B(H  36,C  10)                  1.0967         0.351342   
     37. B(H  37,C  11)                  1.0967         0.351347   
     38. B(H  38,C  11)                  1.0968         0.351174   
     39. B(H  39,C  13)                  1.0965         0.351580   
     40. B(H  40,C  13)                  1.0967         0.351297   
     41. B(H  41,C  14)                  1.0966         0.351434   
     42. B(H  42,C  14)                  1.0967         0.351331   
     43. B(H  43,C  16)                  1.0967         0.351314   
     44. B(H  44,C  16)                  1.0967         0.351305   
     45. B(H  45,C  17)                  1.0968         0.351277   
     46. B(H  46,C  17)                  1.0969         0.351129   
     47. B(H  47,C  19)                  1.0968         0.351280   
     48. B(H  48,C  19)                  1.0968         0.351268   
     49. B(H  49,C  20)                  1.0968         0.351275   
     50. B(H  50,C  20)                  1.0968         0.351269   
     51. B(H  51,C  22)                  1.0929         0.356263   
     52. B(H  52,C  22)                  1.0943         0.354432   
     53. B(H  53,C  22)                  1.0943         0.354433   
     54. A(H  23,C   1,H  24)          104.4786         0.288381   
     55. A(S   0,C   1,H  24)          112.6303         0.331563   
     56. A(C   2,C   1,H  23)          108.3537         0.322625   
     57. A(S   0,C   1,C   2)          110.1279         0.373224   
     58. A(C   2,C   1,H  24)          108.3509         0.322622   
     59. A(S   0,C   1,H  23)          112.6316         0.331566   
     60. A(C   1,C   2,O   3)          109.0552         0.375373   
     61. A(C   1,C   2,H  25)          110.7956         0.322590   
     62. A(O   3,C   2,H  25)          108.6694         0.333363   
     63. A(C   1,C   2,H  26)          110.8021         0.322591   
     64. A(O   3,C   2,H  26)          108.6623         0.333364   
     65. A(H  25,C   2,H  26)          108.8031         0.288324   
     66. A(C   2,O   3,C   4)          110.8428         0.392024   
     67. A(C   5,C   4,H  27)          109.7156         0.324491   
     68. A(O   3,C   4,C   5)          108.9982         0.380822   
     69. A(C   5,C   4,H  28)          109.7241         0.324515   
     70. A(H  27,C   4,H  28)          107.7948         0.288617   
     71. A(O   3,C   4,H  28)          110.3055         0.336367   
     72. A(O   3,C   4,H  27)          110.2901         0.336342   
     73. A(C   4,C   5,O   6)          109.4524         0.379560   
     74. A(H  29,C   5,H  30)          107.7251         0.288585   
     75. A(C   4,C   5,H  29)          109.8416         0.324484   
     76. A(O   6,C   5,H  29)          109.9752         0.335265   
     77. A(C   4,C   5,H  30)          109.8499         0.324485   
     78. A(O   6,C   5,H  30)          109.9763         0.335265   
     79. A(C   5,O   6,C   7)          111.3181         0.393921   
     80. A(O   6,C   7,C   8)          108.8545         0.380590   
     81. A(C   8,C   7,H  32)          109.8354         0.324532   
     82. A(H  31,C   7,H  32)          107.8271         0.288637   
     83. A(O   6,C   7,H  32)          110.2446         0.336159   
     84. A(O   6,C   7,H  31)          110.2446         0.336152   
     85. A(C   8,C   7,H  31)          109.8264         0.324525   
     86. A(O   9,C   8,H  34)          110.0761         0.335724   
     87. A(C   7,C   8,H  34)          109.8253         0.324501   
     88. A(O   9,C   8,H  33)          110.0598         0.335672   
     89. A(C   7,C   8,H  33)          109.8148         0.324453   
     90. A(H  33,C   8,H  34)          107.7097         0.288550   
     91. A(C   7,C   8,O   9)          109.3370         0.380114   
     92. A(C   8,O   9,C  10)          111.2156         0.394332   
     93. A(C  11,C  10,H  36)          109.8415         0.324598   
     94. A(H  35,C  10,H  36)          107.7926         0.288604   
     95. A(O   9,C  10,H  36)          110.2066         0.336010   
     96. A(C  11,C  10,H  35)          109.8528         0.324600   
     97. A(O   9,C  10,H  35)          110.1975         0.336012   
     98. A(O   9,C  10,C  11)          108.9403         0.380555   
     99. A(O  12,C  11,H  38)          110.1130         0.335767   
    100. A(O  12,C  11,H  37)          110.1164         0.335794   
    101. A(C  10,C  11,H  37)          109.8176         0.324599   
    102. A(C  10,C  11,O  12)          109.2194         0.380300   
    103. A(H  37,C  11,H  38)          107.7457         0.288581   
    104. A(C  10,C  11,H  38)          109.8134         0.324573   
    105. A(C  11,O  12,C  13)          111.1956         0.394306   
    106. A(C  14,C  13,H  39)          109.8610         0.324607   
    107. A(O  12,C  13,H  39)          110.1619         0.335964   
    108. A(O  12,C  13,C  14)          109.0121         0.380423   
    109. A(H  39,C  13,H  40)          107.7933         0.288627   
    110. A(C  14,C  13,H  40)          109.8465         0.324564   
    111. A(O  12,C  13,H  40)          110.1553         0.335919   
    112. A(C  13,C  14,O  15)          109.1657         0.380293   
    113. A(H  41,C  14,H  42)          107.7651         0.288613   
    114. A(O  15,C  14,H  42)          110.1252         0.335814   
    115. A(C  13,C  14,H  42)          109.8129         0.324569   
    116. A(O  15,C  14,H  41)          110.1357         0.335830   
    117. A(C  13,C  14,H  41)          109.8220         0.324585   
    118. A(C  14,O  15,C  16)          111.2650         0.394319   
    119. A(C  17,C  16,H  44)          109.8524         0.324508   
    120. A(H  43,C  16,H  44)          107.7727         0.288594   
    121. A(O  15,C  16,H  44)          110.1295         0.335908   
    122. A(C  17,C  16,H  43)          109.8595         0.324509   
    123. A(O  15,C  16,H  43)          110.1380         0.335910   
    124. A(O  15,C  16,C  17)          109.0767         0.380337   
    125. A(H  45,C  17,H  46)          107.7458         0.288567   
    126. A(O  18,C  17,H  46)          110.1360         0.335719   
    127. A(C  16,C  17,H  46)          109.7893         0.324481   
    128. A(O  18,C  17,H  45)          110.1468         0.335742   
    129. A(C  16,C  17,H  45)          109.7994         0.324503   
    130. A(C  16,C  17,O  18)          109.2080         0.380146   
    131. A(C  17,O  18,C  19)          111.2681         0.393830   
    132. A(H  47,C  19,H  48)          107.7721         0.288585   
    133. A(C  20,C  19,H  48)          109.8827         0.324333   
    134. A(O  18,C  19,H  48)          110.0981         0.335570   
    135. A(C  20,C  19,H  47)          109.8838         0.324334   
    136. A(O  18,C  19,H  47)          110.0940         0.335572   
    137. A(O  18,C  19,C  20)          109.0980         0.379736   
    138. A(O  21,C  20,H  50)          110.1137         0.335682   
    139. A(C  19,C  20,H  50)          109.7342         0.324333   
    140. A(O  21,C  20,H  49)          110.1135         0.335683   
    141. A(C  19,C  20,H  49)          109.7326         0.324334   
    142. A(C  19,C  20,O  21)          109.3968         0.379868   
    143. A(H  49,C  20,H  50)          107.7299         0.288584   
    144. A(C  20,O  21,C  22)          111.2978         0.395078   
    145. A(H  52,C  22,H  53)          110.1547         0.289395   
    146. A(H  51,C  22,H  53)          108.6679         0.289629   
    147. A(O  21,C  22,H  53)          110.4630         0.337142   
    148. A(H  51,C  22,H  52)          108.6677         0.289629   
    149. A(O  21,C  22,H  52)          110.4626         0.337142   
    150. A(O  21,C  22,H  51)          108.3657         0.337431   
    151. D(H  25,C   2,C   1,H  24)    -63.1287         0.011042   
    152. D(O   3,C   2,C   1,S   0)   -179.9652         0.011042   
    153. D(O   3,C   2,C   1,H  23)    -56.3654         0.011042   
    154. D(H  25,C   2,C   1,S   0)     60.4676         0.011042   
    155. D(H  26,C   2,C   1,H  23)     63.1969         0.011042   
    156. D(H  26,C   2,C   1,H  24)    176.0008         0.011042   
    157. D(H  26,C   2,C   1,S   0)    -60.4029         0.011042   
    158. D(O   3,C   2,C   1,H  24)     56.4385         0.011042   
    159. D(H  25,C   2,C   1,H  23)   -175.9325         0.011042   
    160. D(C   4,O   3,C   2,C   1)   -179.9565         0.017456   
    161. D(C   4,O   3,C   2,H  25)    -59.0800         0.017456   
    162. D(C   4,O   3,C   2,H  26)     59.1635         0.017456   
    163. D(H  28,C   4,O   3,C   2)    -59.4638         0.019355   
    164. D(C   5,C   4,O   3,C   2)   -179.9932         0.019355   
    165. D(H  27,C   4,O   3,C   2)     59.4974         0.019355   
    166. D(H  30,C   5,C   4,H  28)   -179.9790         0.011749   
    167. D(H  30,C   5,C   4,H  27)     61.7688         0.011749   
    168. D(H  30,C   5,C   4,O   3)    -59.0931         0.011749   
    169. D(H  29,C   5,C   4,H  27)   -179.9125         0.011749   
    170. D(O   6,C   5,C   4,H  28)     59.1771         0.011749   
    171. D(H  29,C   5,C   4,H  28)    -61.6602         0.011749   
    172. D(O   6,C   5,C   4,H  27)    -59.0752         0.011749   
    173. D(O   6,C   5,C   4,O   3)   -179.9370         0.011749   
    174. D(H  29,C   5,C   4,O   3)     59.2257         0.011749   
    175. D(C   7,O   6,C   5,H  29)    -59.2281         0.018609   
    176. D(C   7,O   6,C   5,C   4)   -179.9842         0.018609   
    177. D(C   7,O   6,C   5,H  30)     59.2487         0.018609   
    178. D(H  32,C   7,O   6,C   5)    -59.4781         0.019205   
    179. D(H  31,C   7,O   6,C   5)     59.4565         0.019205   
    180. D(C   8,C   7,O   6,C   5)    179.9837         0.019205   
    181. D(O   9,C   8,C   7,O   6)   -179.9321         0.011754   
    182. D(H  34,C   8,C   7,H  31)     61.7313         0.011754   
    183. D(H  34,C   8,C   7,O   6)    -59.0532         0.011754   
    184. D(H  33,C   8,C   7,H  32)    -61.5743         0.011754   
    185. D(H  33,C   8,C   7,H  31)   -179.9998         0.011754   
    186. D(H  33,C   8,C   7,O   6)     59.2157         0.011754   
    187. D(O   9,C   8,C   7,H  32)     59.2780         0.011754   
    188. D(H  34,C   8,C   7,H  32)   -179.8431         0.011754   
    189. D(O   9,C   8,C   7,H  31)    -59.1476         0.011754   
    190. D(C  10,O   9,C   8,H  34)     59.2543         0.018923   
    191. D(C  10,O   9,C   8,H  33)    -59.3165         0.018923   
    192. D(C  10,O   9,C   8,C   7)    179.9804         0.018923   
    193. D(H  36,C  10,O   9,C   8)    -59.3456         0.019118   
    194. D(H  35,C  10,O   9,C   8)     59.4933         0.019118   
    195. D(C  11,C  10,O   9,C   8)   -179.9220         0.019118   
    196. D(H  38,C  11,C  10,H  36)   -179.9873         0.011792   
    197. D(H  38,C  11,C  10,H  35)     61.6097         0.011792   
    198. D(H  38,C  11,C  10,O   9)    -59.1867         0.011792   
    199. D(H  37,C  11,C  10,H  36)    -61.6799         0.011792   
    200. D(H  37,C  11,C  10,H  35)    179.9171         0.011792   
    201. D(H  37,C  11,C  10,O   9)     59.1207         0.011792   
    202. D(O  12,C  11,C  10,H  36)     59.1698         0.011792   
    203. D(O  12,C  11,C  10,H  35)    -59.2332         0.011792   
    204. D(O  12,C  11,C  10,O   9)    179.9704         0.011792   
    205. D(C  13,O  12,C  11,H  38)     59.3599         0.018967   
    206. D(C  13,O  12,C  11,H  37)    -59.3128         0.018967   
    207. D(C  13,O  12,C  11,C  10)   -179.9801         0.018967   
    208. D(H  40,C  13,O  12,C  11)    -59.3610         0.019060   
    209. D(H  39,C  13,O  12,C  11)     59.4247         0.019060   
    210. D(C  14,C  13,O  12,C  11)   -179.9572         0.019060   
    211. D(O  15,C  14,C  13,H  40)     59.1593         0.011781   
    212. D(O  15,C  14,C  13,H  39)    -59.2526         0.011781   
    213. D(O  15,C  14,C  13,O  12)    179.9448         0.011781   
    214. D(H  42,C  14,C  13,H  40)    179.9832         0.011781   
    215. D(H  42,C  14,C  13,H  39)     61.5714         0.011781   
    216. D(H  42,C  14,C  13,O  12)    -59.2312         0.011781   
    217. D(H  41,C  14,C  13,H  40)    -61.6833         0.011781   
    218. D(H  41,C  14,C  13,H  39)    179.9049         0.011781   
    219. D(H  41,C  14,C  13,O  12)     59.1023         0.011781   
    220. D(C  16,O  15,C  14,H  42)     59.3680         0.018983   
    221. D(C  16,O  15,C  14,H  41)    -59.3482         0.018983   
    222. D(C  16,O  15,C  14,C  13)   -179.9990         0.018983   
    223. D(H  44,C  16,O  15,C  14)    -59.3805         0.019051   
    224. D(H  43,C  16,O  15,C  14)     59.3490         0.019051   
    225. D(C  17,C  16,O  15,C  14)    179.9912         0.019051   
    226. D(H  46,C  17,C  16,H  44)   -179.9887         0.011756   
    227. D(H  46,C  17,C  16,H  43)     61.6220         0.011756   
    228. D(H  46,C  17,C  16,O  15)    -59.1908         0.011756   
    229. D(H  45,C  17,C  16,H  44)    -61.7066         0.011756   
    230. D(H  45,C  17,C  16,H  43)    179.9040         0.011756   
    231. D(H  45,C  17,C  16,O  15)     59.0913         0.011756   
    232. D(O  18,C  17,C  16,H  44)     59.1621         0.011756   
    233. D(O  18,C  17,C  16,H  43)    -59.2272         0.011756   
    234. D(O  18,C  17,C  16,O  15)    179.9601         0.011756   
    235. D(C  19,O  18,C  17,H  46)     59.3807         0.018938   
    236. D(C  19,O  18,C  17,H  45)    -59.3252         0.018938   
    237. D(C  19,O  18,C  17,C  16)   -179.9819         0.018938   
    238. D(H  48,C  19,O  18,C  17)    -59.3177         0.018820   
    239. D(H  47,C  19,O  18,C  17)     59.3645         0.018820   
    240. D(C  20,C  19,O  18,C  17)   -179.9772         0.018820   
    241. D(H  50,C  20,C  19,H  48)   -179.8949         0.011686   
    242. D(H  50,C  20,C  19,H  47)     61.6834         0.011686   
    243. D(H  50,C  20,C  19,O  18)    -59.1036         0.011686   
    244. D(H  49,C  20,C  19,H  48)    -61.7055         0.011686   
    245. D(H  49,C  20,C  19,H  47)    179.8728         0.011686   
    246. D(H  49,C  20,C  19,O  18)     59.0858         0.011686   
    247. D(O  21,C  20,C  19,H  48)     59.1991         0.011686   
    248. D(O  21,C  20,C  19,H  47)    -59.2225         0.011686   
    249. D(O  21,C  20,C  19,O  18)    179.9905         0.011686   
    250. D(C  22,O  21,C  20,H  50)     59.3356         0.018897   
    251. D(C  22,O  21,C  20,H  49)    -59.3163         0.018897   
    252. D(C  22,O  21,C  20,C  19)   -179.9893         0.018897   
    253. D(H  53,C  22,O  21,C  20)    -61.0686         0.019574   
    254. D(H  52,C  22,O  21,C  20)     61.0564         0.019574   
    255. D(H  51,C  22,O  21,C  20)    179.9937         0.019574   
    -----------------------------------------------------------------

Number of atoms                         .... 54
Number of degrees of freedom            .... 255

         *************************************************************
         *                GEOMETRY OPTIMIZATION CYCLE   1            *
         *************************************************************
---------------------------------
CARTESIAN COORDINATES (ANGSTROEM)
---------------------------------
  S     -4.989450    2.122460    2.858680
  C     -3.152470    2.096640    2.811920
  C     -2.667140    1.229970    1.646460
  O     -1.230060    1.225200    1.631950
  C     -0.737040    0.429330    0.559740
  C      0.784980    0.453400    0.583790
  O      1.290410   -0.341800   -0.490070
  C      2.714770   -0.347220   -0.504590
  C      3.191650   -1.208070   -1.666060
  O      4.617800   -1.221940   -1.689290
  C      5.108330   -2.018920   -2.763980
  C      6.629870   -1.999260   -2.739080
  O      7.127280   -2.795950   -3.812220
  C      8.552600   -2.807220   -3.828090
  C      9.028730   -3.668080   -4.989440
  O     10.454530   -3.680590   -5.009160
  C     10.949770   -4.476530   -6.083080
  C     12.471710   -4.455070   -6.057570
  O     12.970290   -5.251520   -7.130610
  C     14.397280   -5.262340   -7.147630
  C     14.875300   -6.123880   -8.309220
  O     16.301620   -6.138950   -8.332340
  C     16.792410   -6.933720   -9.404420
  H     -2.711900    1.707680    3.738640
  H     -2.718770    3.098600    2.701390
  H     -3.026840    1.627760    0.688870
  H     -3.020690    0.196670    1.755480
  H     -1.098100    0.818410   -0.399970
  H     -1.092440   -0.603440    0.657720
  H      1.148360    0.063200    1.542210
  H      1.142700    1.485580    0.486290
  H      3.102350   -0.748540    0.439490
  H      3.096980    0.674410   -0.617170
  H      2.803840   -0.806450   -2.610350
  H      2.806990   -2.229090   -1.554770
  H      4.746420   -1.626750   -3.722080
  H      4.747730   -3.050020   -2.666220
  H      6.991120   -2.390150   -1.780200
  H      6.990000   -0.967840   -2.836650
  H      8.937910   -3.209590   -2.883640
  H      8.937370   -1.786220   -3.939190
  H      8.641640   -3.266100   -5.933460
  H      8.643920   -4.688960   -4.877640
  H     10.587650   -4.085050   -7.041420
  H     10.590140   -5.508010   -5.985440
  H     12.832720   -4.845130   -5.098200
  H     12.830240   -3.423050   -6.155080
  H     14.782350   -5.663670   -6.202370
  H     14.780620   -4.240750   -7.258470
  H     14.487030   -5.721740   -9.252830
  H     14.489110   -7.144240   -8.196960
  H     17.884770   -6.911850   -9.377290
  H     16.457720   -6.529520  -10.364700
  H     16.460010   -7.970610   -9.295330

----------------------------
CARTESIAN COORDINATES (A.U.)
----------------------------
  NO LB      ZA    FRAG     MASS         X           Y           Z
   0 S    16.0000    0    32.060   -9.428694    4.010868    5.402122
   1 C     6.0000    0    12.011   -5.957305    3.962075    5.313759
   2 C     6.0000    0    12.011   -5.040164    2.324306    3.111358
   3 O     8.0000    0    15.999   -2.324477    2.315292    3.083939
   4 C     6.0000    0    12.011   -1.392804    0.811316    1.057755
   5 C     6.0000    0    12.011    1.483397    0.856802    1.103203
   6 O     8.0000    0    15.999    2.438522   -0.645908   -0.926098
   7 C     6.0000    0    12.011    5.130172   -0.656151   -0.953537
   8 C     6.0000    0    12.011    6.031344   -2.282921   -3.148397
   9 O     8.0000    0    15.999    8.726377   -2.309132   -3.192295
  10 C     6.0000    0    12.011    9.653345   -3.815206   -5.223165
  11 C     6.0000    0    12.011   12.528639   -3.778054   -5.176111
  12 O     8.0000    0    15.999   13.468607   -5.283580   -7.204052
  13 C     6.0000    0    12.011   16.162072   -5.304877   -7.234042
  14 C     6.0000    0    12.011   17.061827   -6.931667   -9.428675
  15 O     8.0000    0    15.999   19.756199   -6.955307   -9.465941
  16 C     6.0000    0    12.011   20.692067   -8.459416  -11.495355
  17 C     6.0000    0    12.011   23.568116   -8.418862  -11.447148
  18 O     8.0000    0    15.999   24.510296   -9.923935  -13.474900
  19 C     6.0000    0    12.011   27.206916   -9.944381  -13.507063
  20 C     6.0000    0    12.011   28.110243  -11.572456  -15.702150
  21 O     8.0000    0    15.999   30.805597  -11.600934  -15.745841
  22 C     6.0000    0    12.011   31.733056  -13.102832  -17.771778
  23 H     1.0000    0     1.008   -5.124748    3.227048    7.065006
  24 H     1.0000    0     1.008   -5.137731    5.855505    5.104887
  25 H     1.0000    0     1.008   -5.719899    3.076021    1.301776
  26 H     1.0000    0     1.008   -5.708277    0.371652    3.317376
  27 H     1.0000    0     1.008   -2.075108    1.546571   -0.755834
  28 H     1.0000    0     1.008   -2.064412   -1.140336    1.242911
  29 H     1.0000    0     1.008    2.170086    0.119431    2.914355
  30 H     1.0000    0     1.008    2.159390    2.807339    0.918955
  31 H     1.0000    0     1.008    5.862592   -1.414536    0.830516
  32 H     1.0000    0     1.008    5.852444    1.274450   -1.166282
  33 H     1.0000    0     1.008    5.298490   -1.523970   -4.932847
  34 H     1.0000    0     1.008    5.304442   -4.212370   -2.938090
  35 H     1.0000    0     1.008    8.969434   -3.074112   -7.033712
  36 H     1.0000    0     1.008    8.971909   -5.763703   -5.038426
  37 H     1.0000    0     1.008   13.211302   -4.516729   -3.364090
  38 H     1.0000    0     1.008   13.209186   -1.828953   -5.360492
  39 H     1.0000    0     1.008   16.890202   -6.065246   -5.449290
  40 H     1.0000    0     1.008   16.889182   -3.375467   -7.443990
  41 H     1.0000    0     1.008   16.330333   -6.172035  -11.212614
  42 H     1.0000    0     1.008   16.334642   -8.860850   -9.217404
  43 H     1.0000    0     1.008   20.007759   -7.719626  -13.306355
  44 H     1.0000    0     1.008   20.012464  -10.408630  -11.310842
  45 H     1.0000    0     1.008   24.250326   -9.155969   -9.634202
  46 H     1.0000    0     1.008   24.245640   -6.468627  -11.631416
  47 H     1.0000    0     1.008   27.934593  -10.702785  -11.720781
  48 H     1.0000    0     1.008   27.931324   -8.013856  -13.716520
  49 H     1.0000    0     1.008   27.376519  -10.812522  -17.485315
  50 H     1.0000    0     1.008   27.380450  -13.500657  -15.490010
  51 H     1.0000    0     1.008   33.797317  -13.061504  -17.720510
  52 H     1.0000    0     1.008   31.100584  -12.339005  -19.586444
  53 H     1.0000    0     1.008   31.104911  -15.062270  -17.565628

--------------------------------
INTERNAL COORDINATES (ANGSTROEM)
--------------------------------
 S      0   0   0     0.000000000000     0.00000000     0.00000000
 C      1   0   0     1.837756428475     0.00000000     0.00000000
 C      2   1   0     1.531325931799   110.12791148     0.00000000
 O      3   2   1     1.437161166815   109.05521065   180.03477580
 C      4   3   2     1.423415631992   110.84281615   180.04354176
 C      5   4   3     1.522400291579   108.99815840   180.00678994
 O      6   5   4     1.428627951743   109.45240498   180.06304050
 C      7   6   5     1.424444318462   111.31813579   180.01580122
 C      8   7   6     1.522330390487   108.85454978   179.98365754
 O      9   8   7     1.426406615345   109.33701527   180.06792703
 C     10   9   8     1.425045752739   111.21560652   179.98041723
 C     11  10   9     1.521870722893   108.94025619   180.07800398
 O     12  11  10     1.426099969778   109.21936598   179.97043006
 C     13  12  11     1.425452900730   111.19557300   180.01988328
 C     14  13  12     1.522009703977   109.01208646   180.04279745
 O     15  14  13     1.425991240681   109.16573779   179.94484127
 C     16  15  14     1.425512998047   111.26497910   180.00104313
 C     17  16  15     1.522305046730   109.07666193   179.99124511
 O     18  17  16     1.426299218432   109.20804654   179.96008191
 C     19  18  17     1.427132514135   111.26812976   180.01811279
 C     20  19  18     1.523169596631   109.09796701   180.02281334
 O     21  20  19     1.426586969554   109.39677601   179.99048293
 C     22  21  20     1.421931680286   111.29784154   180.01071493
 H      2   1   3     1.097361273647   112.63157952   238.92643648
 H      2   1   3     1.097377060312   112.63025716   121.06907615
 H      3   2   1     1.097542519541   110.79563751    60.46764381
 H      3   2   1     1.097538998350   110.80213499   299.59708722
 H      5   4   3     1.096718220009   110.29011603    59.49743166
 H      5   4   3     1.096596148680   110.30548559   300.53617876
 H      6   5   4     1.096754284605   109.84155097    59.22570606
 H      6   5   4     1.096752205742   109.84987799   300.90694282
 H      8   7   6     1.096614355733   110.24463785    59.45649131
 H      8   7   6     1.096579498896   110.24458632   300.52185307
 H      9   8   7     1.096986246313   109.81484451    59.21569804
 H      9   8   7     1.096736349402   109.82528710   300.94681424
 H     11  10   9     1.096691281537   110.19753632    59.49334409
 H     11  10   9     1.096702597608   110.20662142   300.65440314
 H     12  11  10     1.096698412965   109.81761273    59.12070032
 H     12  11  10     1.096832137658   109.81337643   300.81334542
 H     14  13  12     1.096517767982   110.16185803    59.42471703
 H     14  13  12     1.096737052762   110.15532990   300.63900903
 H     15  14  13     1.096631364179   109.82196755    59.10231549
 H     15  14  13     1.096710513536   109.81289819   300.76883480
 H     17  16  15     1.096723775798   110.13801863    59.34900015
 H     17  16  15     1.096730731265   110.12952789   300.61948883
 H     18  17  16     1.096752397125   109.79943019    59.09128721
 H     18  17  16     1.096867011720   109.78933995   300.80922850
 H     20  19  18     1.096750263916   110.09400557    59.36452024
 H     20  19  18     1.096759403561   110.09812381   300.68228860
 H     21  20  19     1.096754304573   109.73262116    59.08583015
 H     21  20  19     1.096758657727   109.73424844   300.89642969
 H     23  22  21     1.092915689063   108.36570887   179.99367773
 H     23  22  21     1.094318378946   110.46264581    61.05640272
 H     23  22  21     1.094317714469   110.46300538   298.93137008

---------------------------
INTERNAL COORDINATES (A.U.)
---------------------------
 S      0   0   0     0.000000000000     0.00000000     0.00000000
 C      1   0   0     3.472856350670     0.00000000     0.00000000
 C      2   1   0     2.893786632872   110.12791148     0.00000000
 O      3   2   1     2.715841015586   109.05521065   180.03477580
 C      4   3   2     2.689865719208   110.84281615   180.04354176
 C      5   4   3     2.876919617286   108.99815840   180.00678994
 O      6   5   4     2.699715576058   109.45240498   180.06304050
 C      7   6   5     2.691809654914   111.31813579   180.01580122
 C      8   7   6     2.876787523366   108.85454978   179.98365754
 O      9   8   7     2.695517858616   109.33701527   180.06792703
 C     10   9   8     2.692946200985   111.21560652   179.98041723
 C     11  10   9     2.875918877501   108.94025619   180.07800398
 O     12  11  10     2.694938382473   109.21936598   179.97043006
 C     13  12  11     2.693715599184   111.19557300   180.01988328
 C     14  13  12     2.876181513687   109.01208646   180.04279745
 O     15  14  13     2.694732914258   109.16573779   179.94484127
 C     16  15  14     2.693829166653   111.26497910   180.00104313
 C     17  16  15     2.876739630606   109.07666193   179.99124511
 O     18  17  16     2.695314907863   109.20804654   179.96008191
 C     19  18  17     2.696889608529   111.26812976   180.01811279
 C     20  19  18     2.878373393147   109.09796701   180.02281334
 O     21  20  19     2.695858678677   109.39677601   179.99048293
 C     22  21  20     2.687061456886   111.29784154   180.01071493
 H      2   1   3     2.073712277164   112.63157952   238.92643648
 H      2   1   3     2.073742109638   112.63025716   121.06907615
 H      3   2   1     2.074054782266   110.79563751    60.46764381
 H      3   2   1     2.074048128181   110.80213499   299.59708722
 H      5   4   3     2.072497081899   110.29011603    59.49743166
 H      5   4   3     2.072266400518   110.30548559   300.53617876
 H      6   5   4     2.072565234109   109.84155097    59.22570606
 H      6   5   4     2.072561305626   109.84987799   300.90694282
 H      8   7   6     2.072300806862   110.24463785    59.45649131
 H      8   7   6     2.072234936987   110.24458632   300.52185307
 H      9   8   7     2.073003578210   109.81484451    59.21569804
 H      9   8   7     2.072531341487   109.82528710   300.94681424
 H     11  10   9     2.072446175565   110.19753632    59.49334409
 H     11  10   9     2.072467559839   110.20662142   300.65440314
 H     12  11  10     2.072459652010   109.81761273    59.12070032
 H     12  11  10     2.072712355058   109.81337643   300.81334542
 H     14  13  12     2.072118282464   110.16185803    59.42471703
 H     14  13  12     2.072532670643   110.15532990   300.63900903
 H     15  14  13     2.072332948166   109.82196755    59.10231549
 H     15  14  13     2.072482518775   109.81289819   300.76883480
 H     17  16  15     2.072507580818   110.13801863    59.34900015
 H     17  16  15     2.072520724745   110.12952789   300.61948883
 H     18  17  16     2.072561667288   109.79943019    59.09128721
 H     18  17  16     2.072778257484   109.78933995   300.80922850
 H     20  19  18     2.072557636107   110.09400557    59.36452024
 H     20  19  18     2.072574907534   110.09812381   300.68228860
 H     21  20  19     2.072565271843   109.73262116    59.08583015
 H     21  20  19     2.072573498112   109.73424844   300.89642969
 H     23  22  21     2.065311339795   108.36570887   179.99367773
 H     23  22  21     2.067962039525   110.46264581    61.05640272
 H     23  22  21     2.067960783844   110.46300538   298.93137008

---------------------
BASIS SET INFORMATION
---------------------
There are 4 groups of distinct atoms

 Group   1 Type S   : 17s11p1d contracted to 5s4p1d pattern {66311/6311/1}
 Group   2 Type C   : 11s5p1d contracted to 4s3p1d pattern {6311/311/1}
 Group   3 Type O   : 11s5p1d contracted to 4s3p1d pattern {6311/311/1}
 Group   4 Type H   : 4s1p contracted to 2s1p pattern {31/1}

Atom   0S    basis set group =>   1
Atom   1C    basis set group =>   2
Atom   2C    basis set group =>   2
Atom   3O    basis set group =>   3
Atom   4C    basis set group =>   2
Atom   5C    basis set group =>   2
Atom   6O    basis set group =>   3
Atom   7C    basis set group =>   2
Atom   8C    basis set group =>   2
Atom   9O    basis set group =>   3
Atom  10C    basis set group =>   2
Atom  11C    basis set group =>   2
Atom  12O    basis set group =>   3
Atom  13C    basis set group =>   2
Atom  14C    basis set group =>   2
Atom  15O    basis set group =>   3
Atom  16C    basis set group =>   2
Atom  17C    basis set group =>   2
Atom  18O    basis set group =>   3
Atom  19C    basis set group =>   2
Atom  20C    basis set group =>   2
Atom  21O    basis set group =>   3
Atom  22C    basis set group =>   2
Atom  23H    basis set group =>   4
Atom  24H    basis set group =>   4
Atom  25H    basis set group =>   4
Atom  26H    basis set group =>   4
Atom  27H    basis set group =>   4
Atom  28H    basis set group =>   4
Atom  29H    basis set group =>   4
Atom  30H    basis set group =>   4
Atom  31H    basis set group =>   4
Atom  32H    basis set group =>   4
Atom  33H    basis set group =>   4
Atom  34H    basis set group =>   4
Atom  35H    basis set group =>   4
Atom  36H    basis set group =>   4
Atom  37H    basis set group =>   4
Atom  38H    basis set group =>   4
Atom  39H    basis set group =>   4
Atom  40H    basis set group =>   4
Atom  41H    basis set group =>   4
Atom  42H    basis set group =>   4
Atom  43H    basis set group =>   4
Atom  44H    basis set group =>   4
Atom  45H    basis set group =>   4
Atom  46H    basis set group =>   4
Atom  47H    basis set group =>   4
Atom  48H    basis set group =>   4
Atom  49H    basis set group =>   4
Atom  50H    basis set group =>   4
Atom  51H    basis set group =>   4
Atom  52H    basis set group =>   4
Atom  53H    basis set group =>   4
[file orca_main/mainfcts.cpp, line 334]: Error : multiplicity (1) is odd and number of electrons (193) is odd -> impossible

