
                                 *****************
                                 * O   R   C   A *
                                 *****************

           --- An Ab Initio, DFT and Semiempirical electronic structure package ---

                  #######################################################
                  #                        -***-                        #
                  #  Department of molecular theory and spectroscopy    #
                  #              Directorship: Frank Neese              #
                  # Max Planck Institute for Chemical Energy Conversion #
                  #                  D-45470 Muelheim/Ruhr              #
                  #                       Germany                       #
                  #                                                     #
                  #                  All rights reserved                #
                  #                        -***-                        #
                  #######################################################


                         Program Version 4.0.1.2 - RELEASE -


 With contributions from (in alphabetic order):
   Daniel Aravena         : Magnetic Properties
   Michael Atanasov       : Ab Initio Ligand Field Theory
   Ute Becker             : Parallelization
   Martin Brehm           : Molecular dynamics
   Dmytro Bykov           : SCF Hessian
   Vijay G. Chilkuri      : MRCI spin determinant printing
   Dipayan Datta          : RHF DLPNO-CCSD density
   Achintya Kumar Dutta   : EOM-CC, STEOM-CC
   Dmitry Ganyushin       : Spin-Orbit,Spin-Spin,Magnetic field MRCI
   Yang Guo               : DLPNO-NEVPT2, CIM, IAO-localization
   Andreas Hansen         : Spin unrestricted coupled pair/coupled cluster methods
   Lee Huntington         : MR-EOM, pCC
   Robert Izsak           : Overlap fitted RIJCOSX, COSX-SCS-MP3, EOM
   Christian Kollmar      : KDIIS, OOCD, Brueckner-CCSD(T), CCSD density
   Simone Kossmann        : Meta GGA functionals, TD-DFT gradient, OOMP2, MP2 Hessian
   Martin Krupicka        : AUTO-CI
   Dagmar Lenk            : GEPOL surface
   Dimitrios Liakos       : Extrapolation schemes; parallel MDCI
   Dimitrios Manganas     : ROCIS; embedding schemes
   Dimitrios Pantazis     : SARC Basis sets
   Taras Petrenko         : DFT Hessian,TD-DFT gradient, ASA, ECA, R-Raman, ABS, FL, XAS/XES, NRVS
   Peter Pinski           : DLPNO-MP2
   Christoph Reimann      : Effective Core Potentials
   Marius Retegan         : Local ZFS, SOC
   Christoph Riplinger    : Optimizer, TS searches, QM/MM, DLPNO-CCSD(T), (RO)-DLPNO pert. Triples
   Tobias Risthaus        : Range-separated hybrids, TD-DFT gradient, RPA, STAB
   Michael Roemelt        : Restricted open shell CIS
   Masaaki Saitow         : Open-shell DLPNO
   Barbara Sandhoefer     : DKH picture change effects
   Kantharuban Sivalingam : CASSCF convergence, NEVPT2, FIC-MRCI
   Georgi Stoychev        : AutoAux
   Boris Wezisla          : Elementary symmetry handling
   Frank Wennmohs         : Technical directorship


 We gratefully acknowledge several colleagues who have allowed us to
 interface, adapt or use parts of their codes:
   Stefan Grimme, W. Hujo, H. Kruse,             : VdW corrections, initial TS optimization,
                  C. Bannwarth                     DFT functionals, gCP, sTDA/sTD-DF
   Ed Valeev                                     : LibInt (2-el integral package), F12 methods
   Garnet Chan, S. Sharma, J. Yang, R. Olivares  : DMRG
   Ulf Ekstrom                                   : XCFun DFT Library
   Mihaly Kallay                                 : mrcc  (arbitrary order and MRCC methods)
   Andreas Klamt, Michael Diedenhofen            : otool_cosmo (COSMO solvation model)
   Jiri Pittner, Ondrej Demel                    : Mk-CCSD
   Frank Weinhold                                : gennbo (NPA and NBO analysis)
   Christopher J. Cramer and Donald G. Truhlar   : smd solvation model


 Your calculation uses the libint2 library for the computation of 2-el integrals
 For citations please refer to: http://libint.valeyev.net

 This ORCA versions uses:
   CBLAS   interface :  Fast vector & matrix operations
   LAPACKE interface :  Fast linear algebra routines
   SCALAPACK package :  Parallel linear algebra routines


Your calculation utilizes the basis: 6-31+G**
   H-He, Li-Ne : W. J. Hehre, R. Ditchfield and J.A. Pople, J. Chem. Phys. 56, 2257 (1972).
                 Note: He and Ne are unpublished basis sets taken from the Gaussian program.
                 Note: Li and B from J. D. Dill and J. A. Pople, J. Chem. Phys. 62, 2921 (1975).
   Na - Ar     : M. M. Francl, W. J. Pietro, W. J. Hehre, J. S. Binkley, M. S. Gordon, 
                 D. J. DeFrees and J. A. Pople, J. Chem. Phys. 77, 3654 (1982).
   K - Zn      : V. A. Rassolov, J. A. Pople, M. A. Ratner, and T. L. Windus, J. Chem. Phys. 109, 1223 (1998).
   Additional Pol./Diff. from the 6-311G equivalent.

================================================================================
                                        WARNINGS
                       Please study these warnings very carefully!
================================================================================

Warning: TCutStore was < 0. Adjusted to Thresh (uncritical)

WARNING: Geometry Optimization
  ===> : Switching off AutoStart
         For restart on a previous wavefunction, please use MOREAD

INFO   : the flag for use of LIBINT has been found!

================================================================================
                                       INPUT FILE
================================================================================
NAME = OEG7.inp
|  1> ! RKS B3LYP 6-31+G** NormalSCF Opt NOSOSCF CHELPG
|  2> 
|  3> *xyz 0 1
|  4> S 0.57329 -5.01840 3.38339
|  5> C 0.57329 -3.18064 3.38339
|  6> C 0.34795 -2.65406 1.96349
|  7> O 0.35312 -1.21668 1.98984
|  8> C 0.14721 -0.68559 0.68563
|  9> C 0.16054 0.83471 0.76189
| 10> O -0.04737 1.37837 -0.54303
| 11> C -0.04175 2.80239 -0.51788
| 12> C -0.26848 3.32041 -1.93120
| 13> O -0.26323 4.74684 -1.91724
| 14> C -0.47253 5.27588 -3.22368
| 15> C -0.45525 6.79576 -3.14959
| 16> O -0.66426 7.33112 -4.45460
| 17> C -0.65483 8.75606 -4.43470
| 18> C -0.88158 9.27252 -5.84823
| 19> O -0.87200 10.69835 -5.83228
| 20> C -1.08136 11.23079 -7.13796
| 21> C -1.06158 12.75146 -7.06295
| 22> O -1.27142 13.28749 -8.36753
| 23> C -1.26150 14.71418 -8.34827
| 24> C -1.48915 15.23304 -9.76224
| 25> O -1.47993 16.65920 -9.75048
| 26> C -1.68843 17.18786 -11.05293
| 27> H 1.51203 -2.75839 3.76370
| 28> H -0.20164 -2.75840 4.03571
| 29> H -0.61864 -2.99399 1.57031
| 30> H 1.14405 -2.99565 1.28986
| 31> H -0.81408 -1.02738 0.28302
| 32> H 0.93640 -1.02866 0.00581
| 33> H 1.12165 1.17957 1.16236
| 34> H -0.62783 1.18087 1.44131
| 35> H 0.91768 3.17130 -0.13581
| 36> H -0.83219 3.17339 0.14558
| 37> H -1.22801 2.95131 -2.31323
| 38> H 0.52090 2.94765 -2.59513
| 39> H -1.43555 4.93337 -3.62117
| 40> H 0.31389 4.92742 -3.90399
| 41> H 0.50771 7.13775 -2.75140
| 42> H -1.24135 7.14403 -2.46876
| 43> H 0.30607 9.12259 -4.05392
| 44> H -1.44320 9.13023 -3.77050
| 45> H -1.84259 8.90555 -6.22844
| 46> H -0.09365 8.89692 -6.51220
| 47> H -2.04516 10.88984 -7.53491
| 48> H -0.29617 10.88117 -7.81900
| 49> H -0.09737 13.09087 -6.66571
| 50> H -1.84619 13.09964 -6.38067
| 51> H -0.30027 15.07918 -7.96726
| 52> H -2.04941 15.08745 -7.68290
| 53> H -2.44994 14.86521 -10.14205
| 54> H -0.70142 14.85638 -10.42607
| 55> H -1.67224 18.27880 -10.98836
| 56> H -2.66215 16.87493 -11.44189
| 57> H -0.89059 16.86581 -11.72921
| 58> **                         ****END OF INPUT****
================================================================================

                       *****************************
                       * Geometry Optimization Run *
                       *****************************

Geometry optimization settings:
Update method            Update   .... BFGS
Choice of coordinates    CoordSys .... Redundant Internals
Initial Hessian          InHess   .... Almoef's Model

Convergence Tolerances:
Energy Change            TolE     ....  5.0000e-06 Eh
Max. Gradient            TolMAXG  ....  3.0000e-04 Eh/bohr
RMS Gradient             TolRMSG  ....  1.0000e-04 Eh/bohr
Max. Displacement        TolMAXD  ....  4.0000e-03 bohr
RMS Displacement         TolRMSD  ....  2.0000e-03 bohr

------------------------------------------------------------------------------
                        ORCA OPTIMIZATION COORDINATE SETUP
------------------------------------------------------------------------------

The optimization will be done in new redundant internal coordinates
Making redundant internal coordinates   ...  (new redundants) done
Evaluating the initial hessian          ...  (Almloef) done
Evaluating the coordinates              ...  done
Calculating the B-matrix                .... done
Calculating the G-matrix                .... done
Diagonalizing the G-matrix              .... done
Small eigenvalue found = 1.730e-04
Small eigenvalue found = 7.511e-04
Small eigenvalue found = 1.229e-03
Small eigenvalue found = 4.304e-03
Small eigenvalue found = 5.406e-03
Small eigenvalue found = 6.646e-03
Small eigenvalue found = 8.291e-03
Small eigenvalue found = 1.067e-02
Small eigenvalue found = 2.012e-02
Small eigenvalue found = 2.017e-02
Small eigenvalue found = 2.790e-02
The first mode is                       ....   99
The number of degrees of freedom        ....  156

    -----------------------------------------------------------------
                    Redundant Internal Coordinates


    -----------------------------------------------------------------
         Definition                    Initial Value    Approx d2E/dq
    -----------------------------------------------------------------
      1. B(C   1,S   0)                  1.8378         0.325187   
      2. B(C   2,C   1)                  1.5311         0.372107   
      3. B(O   3,C   2)                  1.4376         0.469768   
      4. B(C   4,O   3)                  1.4232         0.495395   
      5. B(C   5,C   4)                  1.5223         0.384336   
      6. B(O   6,C   5)                  1.4288         0.485171   
      7. B(C   7,O   6)                  1.4243         0.493431   
      8. B(C   8,C   7)                  1.5222         0.384373   
      9. B(O   9,C   8)                  1.4265         0.489361   
     10. B(C  10,O   9)                  1.4249         0.492174   
     11. B(C  11,C  10)                  1.5218         0.385024   
     12. B(O  12,C  11)                  1.4260         0.490357   
     13. B(C  13,O  12)                  1.4251         0.491880   
     14. B(C  14,C  13)                  1.5219         0.384842   
     15. B(O  15,C  14)                  1.4260         0.490363   
     16. B(C  16,O  15)                  1.4255         0.491130   
     17. B(C  17,C  16)                  1.5226         0.383803   
     18. B(O  18,C  17)                  1.4259         0.490393   
     19. B(C  19,O  18)                  1.4269         0.488738   
     20. B(C  20,C  19)                  1.5233         0.382926   
     21. B(O  21,C  20)                  1.4262         0.489846   
     22. B(C  22,O  21)                  1.4210         0.499306   
     23. B(H  23,C   1)                  1.0973         0.350515   
     24. B(H  24,C   1)                  1.0974         0.350420   
     25. B(H  25,C   2)                  1.0975         0.350353   
     26. B(H  26,C   2)                  1.0974         0.350472   
     27. B(H  27,C   4)                  1.0968         0.351202   
     28. B(H  28,C   4)                  1.0967         0.351391   
     29. B(H  29,C   5)                  1.0968         0.351177   
     30. B(H  30,C   5)                  1.0968         0.351219   
     31. B(H  31,C   7)                  1.0966         0.351447   
     32. B(H  32,C   7)                  1.0966         0.351425   
     33. B(H  33,C   8)                  1.0968         0.351269   
     34. B(H  34,C   8)                  1.0968         0.351273   
     35. B(H  35,C  10)                  1.0967         0.351364   
     36. B(H  36,C  10)                  1.0967         0.351373   
     37. B(H  37,C  11)                  1.0967         0.351313   
     38. B(H  38,C  11)                  1.0967         0.351331   
     39. B(H  39,C  13)                  1.0967         0.351395   
     40. B(H  40,C  13)                  1.0967         0.351380   
     41. B(H  41,C  14)                  1.0967         0.351336   
     42. B(H  42,C  14)                  1.0967         0.351337   
     43. B(H  43,C  16)                  1.0967         0.351359   
     44. B(H  44,C  16)                  1.0966         0.351450   
     45. B(H  45,C  17)                  1.0967         0.351375   
     46. B(H  46,C  17)                  1.0965         0.351582   
     47. B(H  47,C  19)                  1.0965         0.351577   
     48. B(H  48,C  19)                  1.0967         0.351287   
     49. B(H  49,C  20)                  1.0967         0.351391   
     50. B(H  50,C  20)                  1.0968         0.351162   
     51. B(H  51,C  22)                  1.0930         0.356194   
     52. B(H  52,C  22)                  1.0942         0.354544   
     53. B(H  53,C  22)                  1.0944         0.354381   
     54. A(H  23,C   1,H  24)          104.4786         0.288377   
     55. A(S   0,C   1,H  24)          112.6287         0.331554   
     56. A(C   2,C   1,H  23)          108.3592         0.322678   
     57. A(S   0,C   1,C   2)          110.1164         0.373283   
     58. A(C   2,C   1,H  24)          108.3605         0.322664   
     59. A(S   0,C   1,H  23)          112.6309         0.331569   
     60. A(C   1,C   2,O   3)          109.0469         0.375321   
     61. A(C   1,C   2,H  25)          110.8146         0.322654   
     62. A(O   3,C   2,H  25)          108.6278         0.333283   
     63. A(C   1,C   2,H  26)          110.8212         0.322671   
     64. A(O   3,C   2,H  26)          108.6549         0.333302   
     65. A(H  25,C   2,H  26)          108.8207         0.288363   
     66. A(C   2,O   3,C   4)          110.8419         0.391967   
     67. A(C   5,C   4,H  27)          109.7114         0.324499   
     68. A(O   3,C   4,C   5)          108.9968         0.380913   
     69. A(C   5,C   4,H  28)          109.7051         0.324527   
     70. A(H  27,C   4,H  28)          107.7990         0.288591   
     71. A(O   3,C   4,H  28)          110.3175         0.336403   
     72. A(O   3,C   4,H  27)          110.2983         0.336373   
     73. A(C   4,C   5,O   6)          109.4492         0.379538   
     74. A(H  29,C   5,H  30)          107.7247         0.288565   
     75. A(C   4,C   5,H  29)          109.8752         0.324495   
     76. A(O   6,C   5,H  29)          109.9573         0.335204   
     77. A(C   4,C   5,H  30)          109.8732         0.324501   
     78. A(O   6,C   5,H  30)          109.9411         0.335211   
     79. A(C   5,O   6,C   7)          111.3291         0.393913   
     80. A(O   6,C   7,C   8)          108.8603         0.380657   
     81. A(C   8,C   7,H  32)          109.8294         0.324538   
     82. A(H  31,C   7,H  32)          107.8195         0.288626   
     83. A(O   6,C   7,H  32)          110.2484         0.336186   
     84. A(O   6,C   7,H  31)          110.2401         0.336189   
     85. A(C   8,C   7,H  31)          109.8348         0.324541   
     86. A(O   9,C   8,H  34)          110.0678         0.335699   
     87. A(C   7,C   8,H  34)          109.8270         0.324515   
     88. A(O   9,C   8,H  33)          110.0687         0.335698   
     89. A(C   7,C   8,H  33)          109.8273         0.324514   
     90. A(H  33,C   8,H  34)          107.7246         0.288584   
     91. A(C   7,C   8,O   9)          109.3081         0.380111   
     92. A(C   8,O   9,C  10)          111.2069         0.394331   
     93. A(C  11,C  10,H  36)          109.8405         0.324620   
     94. A(H  35,C  10,H  36)          107.7954         0.288609   
     95. A(O   9,C  10,H  36)          110.2093         0.336035   
     96. A(C  11,C  10,H  35)          109.8489         0.324619   
     97. A(O   9,C  10,H  35)          110.2020         0.336034   
     98. A(O   9,C  10,C  11)          108.9353         0.380600   
     99. A(O  12,C  11,H  38)          110.1118         0.335822   
    100. A(O  12,C  11,H  37)          110.1148         0.335819   
    101. A(C  10,C  11,H  37)          109.8212         0.324611   
    102. A(C  10,C  11,O  12)          109.1929         0.380356   
    103. A(H  37,C  11,H  38)          107.7545         0.288597   
    104. A(C  10,C  11,H  38)          109.8310         0.324614   
    105. A(C  11,O  12,C  13)          111.2013         0.394430   
    106. A(C  14,C  13,H  39)          109.8536         0.324598   
    107. A(O  12,C  13,H  39)          110.1714         0.336005   
    108. A(O  12,C  13,C  14)          108.9870         0.380530   
    109. A(H  39,C  13,H  40)          107.7916         0.288614   
    110. A(C  14,C  13,H  40)          109.8545         0.324596   
    111. A(O  12,C  13,H  40)          110.1724         0.336003   
    112. A(C  13,C  14,O  15)          109.1432         0.380326   
    113. A(H  41,C  14,H  42)          107.7623         0.288601   
    114. A(O  15,C  14,H  42)          110.1449         0.335823   
    115. A(C  13,C  14,H  42)          109.8187         0.324589   
    116. A(O  15,C  14,H  41)          110.1419         0.335823   
    117. A(C  13,C  14,H  41)          109.8160         0.324589   
    118. A(C  14,O  15,C  16)          111.2379         0.394326   
    119. A(C  17,C  16,H  44)          109.8583         0.324462   
    120. A(H  43,C  16,H  44)          107.7790         0.288618   
    121. A(O  15,C  16,H  44)          110.1567         0.335929   
    122. A(C  17,C  16,H  43)          109.8607         0.324449   
    123. A(O  15,C  16,H  43)          110.1497         0.335914   
    124. A(O  15,C  16,C  17)          109.0256         0.380251   
    125. A(H  45,C  17,H  46)          107.7859         0.288637   
    126. A(O  18,C  17,H  46)          110.1577         0.335866   
    127. A(C  16,C  17,H  46)          109.7842         0.324482   
    128. A(O  18,C  17,H  45)          110.1474         0.335833   
    129. A(C  16,C  17,H  45)          109.7766         0.324451   
    130. A(C  16,C  17,O  18)          109.1744         0.380152   
    131. A(C  17,O  18,C  19)          111.2537         0.393993   
    132. A(H  47,C  19,H  48)          107.7988         0.288625   
    133. A(C  20,C  19,H  48)          109.8679         0.324316   
    134. A(O  18,C  19,H  48)          110.0902         0.335630   
    135. A(C  20,C  19,H  47)          109.8869         0.324360   
    136. A(O  18,C  19,H  47)          110.0974         0.335676   
    137. A(O  18,C  19,C  20)          109.0877         0.379779   
    138. A(O  21,C  20,H  50)          110.1045         0.335737   
    139. A(C  19,C  20,H  50)          109.7241         0.324297   
    140. A(O  21,C  20,H  49)          110.1152         0.335773   
    141. A(C  19,C  20,H  49)          109.7652         0.324332   
    142. A(C  19,C  20,O  21)          109.3892         0.379928   
    143. A(H  49,C  20,H  50)          107.7228         0.288586   
    144. A(C  20,O  21,C  22)          111.3153         0.395396   
    145. A(H  52,C  22,H  53)          110.1775         0.289403   
    146. A(H  51,C  22,H  53)          108.6293         0.289613   
    147. A(O  21,C  22,H  53)          110.4844         0.337319   
    148. A(H  51,C  22,H  52)          108.6406         0.289634   
    149. A(O  21,C  22,H  52)          110.4857         0.337345   
    150. A(O  21,C  22,H  51)          108.3616         0.337606   
    151. D(H  25,C   2,C   1,H  24)    -63.0744         0.011061   
    152. D(O   3,C   2,C   1,S   0)   -179.9588         0.011061   
    153. D(O   3,C   2,C   1,H  23)    -56.3637         0.011061   
    154. D(H  25,C   2,C   1,S   0)     60.5190         0.011061   
    155. D(H  26,C   2,C   1,H  23)     63.1959         0.011061   
    156. D(H  26,C   2,C   1,H  24)    176.0073         0.011061   
    157. D(H  26,C   2,C   1,S   0)    -60.3993         0.011061   
    158. D(O   3,C   2,C   1,H  24)     56.4477         0.011061   
    159. D(H  25,C   2,C   1,H  23)   -175.8858         0.011061   
    160. D(C   4,O   3,C   2,C   1)    179.9559         0.017395   
    161. D(C   4,O   3,C   2,H  25)    -59.1748         0.017395   
    162. D(C   4,O   3,C   2,H  26)     59.0621         0.017395   
    163. D(H  28,C   4,O   3,C   2)    -59.4793         0.019391   
    164. D(C   5,C   4,O   3,C   2)   -179.9918         0.019391   
    165. D(H  27,C   4,O   3,C   2)     59.4998         0.019391   
    166. D(H  30,C   5,C   4,H  28)   -179.9954         0.011759   
    167. D(H  30,C   5,C   4,H  27)     61.7611         0.011759   
    168. D(H  30,C   5,C   4,O   3)    -59.1073         0.011759   
    169. D(H  29,C   5,C   4,H  27)   -179.8862         0.011759   
    170. D(O   6,C   5,C   4,H  28)     59.1916         0.011759   
    171. D(H  29,C   5,C   4,H  28)    -61.6427         0.011759   
    172. D(O   6,C   5,C   4,H  27)    -59.0519         0.011759   
    173. D(O   6,C   5,C   4,O   3)   -179.9203         0.011759   
    174. D(H  29,C   5,C   4,O   3)     59.2454         0.011759   
    175. D(C   7,O   6,C   5,H  29)    -59.1933         0.018578   
    176. D(C   7,O   6,C   5,C   4)   -179.9777         0.018578   
    177. D(C   7,O   6,C   5,H  30)     59.2505         0.018578   
    178. D(H  32,C   7,O   6,C   5)    -59.4054         0.019233   
    179. D(H  31,C   7,O   6,C   5)     59.5194         0.019233   
    180. D(C   8,C   7,O   6,C   5)   -179.9423         0.019233   
    181. D(O   9,C   8,C   7,O   6)   -179.9400         0.011762   
    182. D(H  34,C   8,C   7,H  31)     61.6991         0.011762   
    183. D(H  34,C   8,C   7,O   6)    -59.0886         0.011762   
    184. D(H  33,C   8,C   7,H  32)    -61.5874         0.011762   
    185. D(H  33,C   8,C   7,H  31)    179.9948         0.011762   
    186. D(H  33,C   8,C   7,O   6)     59.2071         0.011762   
    187. D(O   9,C   8,C   7,H  32)     59.2654         0.011762   
    188. D(H  34,C   8,C   7,H  32)   -179.8832         0.011762   
    189. D(O   9,C   8,C   7,H  31)    -59.1523         0.011762   
    190. D(C  10,O   9,C   8,H  34)     59.2877         0.018909   
    191. D(C  10,O   9,C   8,H  33)    -59.3019         0.018909   
    192. D(C  10,O   9,C   8,C   7)    179.9924         0.018909   
    193. D(H  36,C  10,O   9,C   8)    -59.3419         0.019133   
    194. D(H  35,C  10,O   9,C   8)     59.5049         0.019133   
    195. D(C  11,C  10,O   9,C   8)   -179.9156         0.019133   
    196. D(H  38,C  11,C  10,H  36)   -179.9660         0.011799   
    197. D(H  38,C  11,C  10,H  35)     61.6305         0.011799   
    198. D(H  38,C  11,C  10,O   9)    -59.1659         0.011799   
    199. D(H  37,C  11,C  10,H  36)    -61.6350         0.011799   
    200. D(H  37,C  11,C  10,H  35)    179.9615         0.011799   
    201. D(H  37,C  11,C  10,O   9)     59.1651         0.011799   
    202. D(O  12,C  11,C  10,H  36)     59.1983         0.011799   
    203. D(O  12,C  11,C  10,H  35)    -59.2052         0.011799   
    204. D(O  12,C  11,C  10,O   9)    179.9985         0.011799   
    205. D(C  13,O  12,C  11,H  38)     59.3886         0.018988   
    206. D(C  13,O  12,C  11,H  37)    -59.2933         0.018988   
    207. D(C  13,O  12,C  11,C  10)   -179.9473         0.018988   
    208. D(H  40,C  13,O  12,C  11)    -59.3960         0.019109   
    209. D(H  39,C  13,O  12,C  11)     59.4042         0.019109   
    210. D(C  14,C  13,O  12,C  11)   -179.9967         0.019109   
    211. D(O  15,C  14,C  13,H  40)     59.2372         0.011789   
    212. D(O  15,C  14,C  13,H  39)    -59.1730         0.011789   
    213. D(O  15,C  14,C  13,O  12)   -179.9670         0.011789   
    214. D(H  42,C  14,C  13,H  40)   -179.9251         0.011789   
    215. D(H  42,C  14,C  13,H  39)     61.6648         0.011789   
    216. D(H  42,C  14,C  13,O  12)    -59.1293         0.011789   
    217. D(H  41,C  14,C  13,H  40)    -61.5951         0.011789   
    218. D(H  41,C  14,C  13,H  39)    179.9947         0.011789   
    219. D(H  41,C  14,C  13,O  12)     59.2006         0.011789   
    220. D(C  16,O  15,C  14,H  42)     59.3695         0.018988   
    221. D(C  16,O  15,C  14,H  41)    -59.3592         0.018988   
    222. D(C  16,O  15,C  14,C  13)   -179.9922         0.018988   
    223. D(H  44,C  16,O  15,C  14)    -59.3742         0.019049   
    224. D(H  43,C  16,O  15,C  14)     59.3872         0.019049   
    225. D(C  17,C  16,O  15,C  14)   -179.9942         0.019049   
    226. D(H  46,C  17,C  16,H  44)   -179.9230         0.011728   
    227. D(H  46,C  17,C  16,H  43)     61.6757         0.011728   
    228. D(H  46,C  17,C  16,O  15)    -59.1200         0.011728   
    229. D(H  45,C  17,C  16,H  44)    -61.6088         0.011728   
    230. D(H  45,C  17,C  16,H  43)    179.9899         0.011728   
    231. D(H  45,C  17,C  16,O  15)     59.1942         0.011728   
    232. D(O  18,C  17,C  16,H  44)     59.2255         0.011728   
    233. D(O  18,C  17,C  16,H  43)    -59.1758         0.011728   
    234. D(O  18,C  17,C  16,O  15)   -179.9716         0.011728   
    235. D(C  19,O  18,C  17,H  46)     59.3635         0.018991   
    236. D(C  19,O  18,C  17,H  45)    -59.4057         0.018991   
    237. D(C  19,O  18,C  17,C  16)    179.9868         0.018991   
    238. D(H  48,C  19,O  18,C  17)    -59.3733         0.018859   
    239. D(H  47,C  19,O  18,C  17)     59.3390         0.018859   
    240. D(C  20,C  19,O  18,C  17)    179.9968         0.018859   
    241. D(H  50,C  20,C  19,H  48)   -179.8605         0.011677   
    242. D(H  50,C  20,C  19,H  47)     61.6921         0.011677   
    243. D(H  50,C  20,C  19,O  18)    -59.0946         0.011677   
    244. D(H  49,C  20,C  19,H  48)    -61.6664         0.011677   
    245. D(H  49,C  20,C  19,H  47)    179.8863         0.011677   
    246. D(H  49,C  20,C  19,O  18)     59.0996         0.011677   
    247. D(O  21,C  20,C  19,H  48)     59.2560         0.011677   
    248. D(O  21,C  20,C  19,H  47)    -59.1913         0.011677   
    249. D(O  21,C  20,C  19,O  18)   -179.9780         0.011677   
    250. D(C  22,O  21,C  20,H  50)     59.3081         0.018947   
    251. D(C  22,O  21,C  20,H  49)    -59.3305         0.018947   
    252. D(C  22,O  21,C  20,C  19)    179.9600         0.018947   
    253. D(H  53,C  22,O  21,C  20)    -61.0924         0.019708   
    254. D(H  52,C  22,O  21,C  20)     61.0915         0.019708   
    255. D(H  51,C  22,O  21,C  20)   -179.9932         0.019708   
    -----------------------------------------------------------------

Number of atoms                         .... 54
Number of degrees of freedom            .... 255

         *************************************************************
         *                GEOMETRY OPTIMIZATION CYCLE   1            *
         *************************************************************
---------------------------------
CARTESIAN COORDINATES (ANGSTROEM)
---------------------------------
  S      0.573290   -5.018400    3.383390
  C      0.573290   -3.180640    3.383390
  C      0.347950   -2.654060    1.963490
  O      0.353120   -1.216680    1.989840
  C      0.147210   -0.685590    0.685630
  C      0.160540    0.834710    0.761890
  O     -0.047370    1.378370   -0.543030
  C     -0.041750    2.802390   -0.517880
  C     -0.268480    3.320410   -1.931200
  O     -0.263230    4.746840   -1.917240
  C     -0.472530    5.275880   -3.223680
  C     -0.455250    6.795760   -3.149590
  O     -0.664260    7.331120   -4.454600
  C     -0.654830    8.756060   -4.434700
  C     -0.881580    9.272520   -5.848230
  O     -0.872000   10.698350   -5.832280
  C     -1.081360   11.230790   -7.137960
  C     -1.061580   12.751460   -7.062950
  O     -1.271420   13.287490   -8.367530
  C     -1.261500   14.714180   -8.348270
  C     -1.489150   15.233040   -9.762240
  O     -1.479930   16.659200   -9.750480
  C     -1.688430   17.187860  -11.052930
  H      1.512030   -2.758390    3.763700
  H     -0.201640   -2.758400    4.035710
  H     -0.618640   -2.993990    1.570310
  H      1.144050   -2.995650    1.289860
  H     -0.814080   -1.027380    0.283020
  H      0.936400   -1.028660    0.005810
  H      1.121650    1.179570    1.162360
  H     -0.627830    1.180870    1.441310
  H      0.917680    3.171300   -0.135810
  H     -0.832190    3.173390    0.145580
  H     -1.228010    2.951310   -2.313230
  H      0.520900    2.947650   -2.595130
  H     -1.435550    4.933370   -3.621170
  H      0.313890    4.927420   -3.903990
  H      0.507710    7.137750   -2.751400
  H     -1.241350    7.144030   -2.468760
  H      0.306070    9.122590   -4.053920
  H     -1.443200    9.130230   -3.770500
  H     -1.842590    8.905550   -6.228440
  H     -0.093650    8.896920   -6.512200
  H     -2.045160   10.889840   -7.534910
  H     -0.296170   10.881170   -7.819000
  H     -0.097370   13.090870   -6.665710
  H     -1.846190   13.099640   -6.380670
  H     -0.300270   15.079180   -7.967260
  H     -2.049410   15.087450   -7.682900
  H     -2.449940   14.865210  -10.142050
  H     -0.701420   14.856380  -10.426070
  H     -1.672240   18.278800  -10.988360
  H     -2.662150   16.874930  -11.441890
  H     -0.890590   16.865810  -11.729210

----------------------------
CARTESIAN COORDINATES (A.U.)
----------------------------
  NO LB      ZA    FRAG     MASS         X           Y           Z
   0 S    16.0000    0    32.060    1.083361   -9.483402    6.393681
   1 C     6.0000    0    12.011    1.083361   -6.010539    6.393681
   2 C     6.0000    0    12.011    0.657530   -5.015447    3.710458
   3 O     8.0000    0    15.999    0.667300   -2.299192    3.760253
   4 C     6.0000    0    12.011    0.278187   -1.295577    1.295653
   5 C     6.0000    0    12.011    0.303377    1.577373    1.439763
   6 O     8.0000    0    15.999   -0.089516    2.604742   -1.026178
   7 C     6.0000    0    12.011   -0.078896    5.295750   -0.978651
   8 C     6.0000    0    12.011   -0.507354    6.274666   -3.649439
   9 O     8.0000    0    15.999   -0.497433    8.970228   -3.623059
  10 C     6.0000    0    12.011   -0.892952    9.969968   -6.091872
  11 C     6.0000    0    12.011   -0.860298   12.842125   -5.951863
  12 O     8.0000    0    15.999   -1.255269   13.853809   -8.417974
  13 C     6.0000    0    12.011   -1.237449   16.546555   -8.380368
  14 C     6.0000    0    12.011   -1.665945   17.522523  -11.051553
  15 O     8.0000    0    15.999   -1.647841   20.216952  -11.021412
  16 C     6.0000    0    12.011   -2.043474   21.223117  -13.488790
  17 C     6.0000    0    12.011   -2.006095   24.096767  -13.347041
  18 O     8.0000    0    15.999   -2.402636   25.109717  -15.812340
  19 C     6.0000    0    12.011   -2.383890   27.805770  -15.775944
  20 C     6.0000    0    12.011   -2.814086   28.786274  -18.447960
  21 O     8.0000    0    15.999   -2.796662   31.481326  -18.425737
  22 C     6.0000    0    12.011   -3.190670   32.480348  -20.887011
  23 H     1.0000    0     1.008    2.857323   -5.212602    7.112362
  24 H     1.0000    0     1.008   -0.381044   -5.212621    7.626387
  25 H     1.0000    0     1.008   -1.169060   -5.657821    2.967456
  26 H     1.0000    0     1.008    2.161941   -5.660958    2.437482
  27 H     1.0000    0     1.008   -1.538388   -1.941467    0.534830
  28 H     1.0000    0     1.008    1.769540   -1.943886    0.010979
  29 H     1.0000    0     1.008    2.119611    2.229064    2.196542
  30 H     1.0000    0     1.008   -1.186427    2.231521    2.723681
  31 H     1.0000    0     1.008    1.734164    5.992888   -0.256644
  32 H     1.0000    0     1.008   -1.572611    5.996838    0.275106
  33 H     1.0000    0     1.008   -2.320603    5.577168   -4.371371
  34 H     1.0000    0     1.008    0.984358    5.570251   -4.904085
  35 H     1.0000    0     1.008   -2.712796    9.322718   -6.843020
  36 H     1.0000    0     1.008    0.593166    9.311474   -7.377472
  37 H     1.0000    0     1.008    0.959433   13.488393   -5.199392
  38 H     1.0000    0     1.008   -2.345812   13.500260   -4.665280
  39 H     1.0000    0     1.008    0.578388   17.239197   -7.660799
  40 H     1.0000    0     1.008   -2.727253   17.253634   -7.125212
  41 H     1.0000    0     1.008   -3.481990   16.829051  -11.770046
  42 H     1.0000    0     1.008   -0.176973   16.812742  -12.306275
  43 H     1.0000    0     1.008   -3.864792   20.578815  -14.238916
  44 H     1.0000    0     1.008   -0.559680   20.562431  -14.775769
  45 H     1.0000    0     1.008   -0.184003   24.738159  -12.596366
  46 H     1.0000    0     1.008   -3.488793   24.754732  -12.057719
  47 H     1.0000    0     1.008   -0.567428   28.495521  -15.055939
  48 H     1.0000    0     1.008   -3.872824   28.511149  -14.518577
  49 H     1.0000    0     1.008   -4.629716   28.091176  -19.165697
  50 H     1.0000    0     1.008   -1.325492   28.074490  -19.702417
  51 H     1.0000    0     1.008   -3.160076   34.541926  -20.764991
  52 H     1.0000    0     1.008   -5.030734   31.888996  -21.622039
  53 H     1.0000    0     1.008   -1.682971   31.871762  -22.164995

--------------------------------
INTERNAL COORDINATES (ANGSTROEM)
--------------------------------
 S      0   0   0     0.000000000000     0.00000000     0.00000000
 C      1   0   0     1.837760000000     0.00000000     0.00000000
 C      2   1   0     1.531071723336   110.11643298     0.00000000
 O      3   2   1     1.437630799545   109.04688940   180.04115098
 C      4   3   2     1.423172245478   110.84194880   179.95586215
 C      5   4   3     1.522269807393   108.99676850   180.00818442
 O      6   5   4     1.428848826888   109.44916422   180.07972735
 C      7   6   5     1.424253161239   111.32912909   180.02228734
 C      8   7   6     1.522243290575   108.86031943   180.05770708
 O      9   8   7     1.426507970185   109.30809552   180.05996138
 C     10   9   8     1.424947467523   111.20689110   179.99240543
 C     11  10   9     1.521782882313   108.93531294   180.08444759
 O     12  11  10     1.425954631045   109.19286051   179.99845348
 C     13  12  11     1.425110149602   111.20128790   180.05271235
 C     14  13  12     1.521911152137   108.98701331   180.00327019
 O     15  14  13     1.425951390406   109.14323360   180.03300204
 C     16  15  14     1.425525947010   111.23786496   180.00775863
 C     17  16  15     1.522647364757   109.02556849   180.00577256
 O     18  17  16     1.425934768108   109.17439670   180.02840938
 C     19  18  17     1.426854481053   111.25374285   179.98675483
 C     20  19  18     1.523269963926   109.08766907   179.99683267
 O     21  20  19     1.426238287104   109.38923116   180.02198888
 C     22  21  20     1.421031191811   111.31525490   179.96004154
 H      2   1   3     1.097343859599   112.63087672   238.92803445
 H      2   1   3     1.097417197286   112.62871483   121.07226653
 H      3   2   1     1.097469428002   110.81457417    60.51897818
 H      3   2   1     1.097377015888   110.82123400   299.60072177
 H      5   4   3     1.096810685716   110.29830043    59.49982693
 H      5   4   3     1.096664540049   110.31752295   300.52065033
 H      6   5   4     1.096830466663   109.87518277    59.24541817
 H      6   5   4     1.096797856900   109.87319134   300.89272931
 H      8   7   6     1.096621173378   110.24013717    59.51936167
 H      8   7   6     1.096638301903   110.24836558   300.59457940
 H      9   8   7     1.096758657044   109.82733607    59.20711916
 H      9   8   7     1.096756056240   109.82696883   300.91140000
 H     11  10   9     1.096685424632   110.20200548    59.50492541
 H     11  10   9     1.096677930889   110.20925149   300.65814424
 H     12  11  10     1.096724394641   109.82116418    59.16510090
 H     12  11  10     1.096710851501   109.83097637   300.83412927
 H     14  13  12     1.096661506254   110.17141345    59.40421051
 H     14  13  12     1.096673190062   110.17239930   300.60401235
 H     15  14  13     1.096707274116   109.81596305    59.20063575
 H     15  14  13     1.096706526743   109.81868011   300.87071953
 H     17  16  15     1.096688946329   110.14965313    59.38716249
 H     17  16  15     1.096618877322   110.15668994   300.62581147
 H     18  17  16     1.096676656905   109.77657178    59.19415460
 H     18  17  16     1.096516376029   109.78415880   300.87998772
 H     20  19  18     1.096520283898   110.09743327    59.33900161
 H     20  19  18     1.096745138079   110.09017352   300.62669327
 H     21  20  19     1.096664018330   109.76517688    59.09961012
 H     21  20  19     1.096841637339   109.72408399   300.90544283
 H     23  22  21     1.092969114202   108.36164637   180.00681628
 H     23  22  21     1.094232929910   110.48571435    61.09149575
 H     23  22  21     1.094358033963   110.48438016   298.90759134

---------------------------
INTERNAL COORDINATES (A.U.)
---------------------------
 S      0   0   0     0.000000000000     0.00000000     0.00000000
 C      1   0   0     3.472863099875     0.00000000     0.00000000
 C      2   1   0     2.893306248496   110.11643298     0.00000000
 O      3   2   1     2.716728492830   109.04688940   180.04115098
 C      4   3   2     2.689405785352   110.84194880   179.95586215
 C      5   4   3     2.876673037910   108.99676850   180.00818442
 O      6   5   4     2.700132969593   109.44916422   180.07972735
 C      7   6   5     2.691448420114   111.32912909   180.02228734
 C      8   7   6     2.876622928385   108.86031943   180.05770708
 O      9   8   7     2.695709391505   109.30809552   180.05996138
 C     10   9   8     2.692760468843   111.20689110   179.99240543
 C     11  10   9     2.875752882860   108.93531294   180.08444759
 O     12  11  10     2.694663732073   109.19286051   179.99845348
 C     13  12  11     2.693067893420   111.20128790   180.05271235
 C     14  13  12     2.875995277700   108.98701331   180.00327019
 O     15  14  13     2.694657608151   109.14323360   180.03300204
 C     16  15  14     2.693853636648   111.23786496   180.00775863
 C     17  16  15     2.877386517927   109.02556849   180.00577256
 O     18  17  16     2.694626196561   109.17439670   180.02840938
 C     19  18  17     2.696364202148   111.25374285   179.98675483
 C     20  19  18     2.878563059849   109.08766907   179.99683267
 O     21  20  19     2.695199764339   109.38923116   180.02198888
 C     22  21  20     2.685359780283   111.31525490   179.96004154
 H      2   1   3     2.073679369383   112.63087672   238.92803445
 H      2   1   3     2.073817957527   112.62871483   121.07226653
 H      3   2   1     2.073916659276   110.81457417    60.51897818
 H      3   2   1     2.073742025689   110.82123400   299.60072177
 H      5   4   3     2.072671816761   110.29830043    59.49982693
 H      5   4   3     2.072395641475   110.31752295   300.52065033
 H      6   5   4     2.072709197334   109.87518277    59.24541817
 H      6   5   4     2.072647573812   109.87319134   300.89272931
 H      8   7   6     2.072313690343   110.24013717    59.51936167
 H      8   7   6     2.072346058565   110.24836558   300.59457940
 H      9   8   7     2.072573496820   109.82733607    59.20711916
 H      9   8   7     2.072568582014   109.82696883   300.91140000
 H     11  10   9     2.072435107617   110.20200548    59.50492541
 H     11  10   9     2.072420946497   110.20925149   300.65814424
 H     12  11  10     2.072508750261   109.82116418    59.16510090
 H     12  11  10     2.072483157436   109.83097637   300.83412927
 H     14  13  12     2.072389908434   110.17141345    59.40421051
 H     14  13  12     2.072411987630   110.17239930   300.60401235
 H     15  14  13     2.072476397159   109.81596305    59.20063575
 H     15  14  13     2.072474984828   109.81868011   300.87071953
 H     17  16  15     2.072441762660   110.14965313    59.38716249
 H     17  16  15     2.072309351428   110.15668994   300.62581147
 H     18  17  16     2.072418539014   109.77657178    59.19415460
 H     18  17  16     2.072115652055   109.78415880   300.87998772
 H     20  19  18     2.072123036857   110.09743327    59.33900161
 H     20  19  18     2.072547949679   110.09017352   300.62669327
 H     21  20  19     2.072394655570   109.76517688    59.09961012
 H     21  20  19     2.072730306852   109.72408399   300.90544283
 H     23  22  21     2.065412298677   108.36164637   180.00681628
 H     23  22  21     2.067800564249   110.48571435    61.09149575
 H     23  22  21     2.068036976647   110.48438016   298.90759134

---------------------
BASIS SET INFORMATION
---------------------
There are 4 groups of distinct atoms

 Group   1 Type S   : 17s11p1d contracted to 5s4p1d pattern {66311/6311/1}
 Group   2 Type C   : 11s5p1d contracted to 4s3p1d pattern {6311/311/1}
 Group   3 Type O   : 11s5p1d contracted to 4s3p1d pattern {6311/311/1}
 Group   4 Type H   : 4s1p contracted to 2s1p pattern {31/1}

Atom   0S    basis set group =>   1
Atom   1C    basis set group =>   2
Atom   2C    basis set group =>   2
Atom   3O    basis set group =>   3
Atom   4C    basis set group =>   2
Atom   5C    basis set group =>   2
Atom   6O    basis set group =>   3
Atom   7C    basis set group =>   2
Atom   8C    basis set group =>   2
Atom   9O    basis set group =>   3
Atom  10C    basis set group =>   2
Atom  11C    basis set group =>   2
Atom  12O    basis set group =>   3
Atom  13C    basis set group =>   2
Atom  14C    basis set group =>   2
Atom  15O    basis set group =>   3
Atom  16C    basis set group =>   2
Atom  17C    basis set group =>   2
Atom  18O    basis set group =>   3
Atom  19C    basis set group =>   2
Atom  20C    basis set group =>   2
Atom  21O    basis set group =>   3
Atom  22C    basis set group =>   2
Atom  23H    basis set group =>   4
Atom  24H    basis set group =>   4
Atom  25H    basis set group =>   4
Atom  26H    basis set group =>   4
Atom  27H    basis set group =>   4
Atom  28H    basis set group =>   4
Atom  29H    basis set group =>   4
Atom  30H    basis set group =>   4
Atom  31H    basis set group =>   4
Atom  32H    basis set group =>   4
Atom  33H    basis set group =>   4
Atom  34H    basis set group =>   4
Atom  35H    basis set group =>   4
Atom  36H    basis set group =>   4
Atom  37H    basis set group =>   4
Atom  38H    basis set group =>   4
Atom  39H    basis set group =>   4
Atom  40H    basis set group =>   4
Atom  41H    basis set group =>   4
Atom  42H    basis set group =>   4
Atom  43H    basis set group =>   4
Atom  44H    basis set group =>   4
Atom  45H    basis set group =>   4
Atom  46H    basis set group =>   4
Atom  47H    basis set group =>   4
Atom  48H    basis set group =>   4
Atom  49H    basis set group =>   4
Atom  50H    basis set group =>   4
Atom  51H    basis set group =>   4
Atom  52H    basis set group =>   4
Atom  53H    basis set group =>   4
[file orca_main/mainfcts.cpp, line 334]: Error : multiplicity (1) is odd and number of electrons (193) is odd -> impossible

