LAMMPS (31 Mar 2017)
  using 1 OpenMP thread(s) per MPI task
Reading data file ...
  orthogonal box = (0 0 0) to (81.6 70.667 100)
  4 by 3 by 1 MPI processor grid
  reading atoms ...
  13232 atoms
  scanning bonds ...
  1 = max bonds/atom
  scanning angles ...
  6 = max angles/atom
  scanning dihedrals ...
  9 = max dihedrals/atom
  reading bonds ...
  11776 bonds
  reading angles ...
  21504 angles
  reading dihedrals ...
  23040 dihedrals
Finding 1-2 1-3 1-4 neighbors ...
  special bond factors lj:   0          0          0.5       
  special bond factors coul: 0          0          0.5       
  4 = max # of 1-2 neighbors
  6 = max # of 1-3 neighbors
  12 = max # of 1-4 neighbors
  14 = max # of special neighbors
1200 atoms in group gold
256 atoms in group thiol
12032 atoms in group dynamic
Ewald initialization ...
WARNING: System is not charge neutral, net charge = 4.096e-05 (../kspace.cpp:302)
WARNING: Using 12-bit tables for long-range coulomb (../kspace.cpp:321)
  G vector (1/distance) = 0.140043
  estimated absolute RMS force accuracy = 0.0368424
  estimated relative force accuracy = 0.00011095
  KSpace vectors: actual max1d max3d = 769 8 2456
                  kxmax kymax kzmax  = 7 6 8
Neighbor list info ...
  update every 1 steps, delay 0 steps, check yes
  max neighbors/atom: 30000, page size: 300000
  master list distance cutoff = 22
  ghost atom cutoff = 22
  binsize = 11, bins = 8 7 10
  3 neighbor lists, perpetual/occasional/extra = 3 0 0
  (1) pair lj/cut/coul/long, perpetual, skip from (3)
      attributes: half, newton on
      pair build: skip
      stencil: none
      bin: none
  (2) pair morse, perpetual, skip from (3)
      attributes: half, newton on
      pair build: skip
      stencil: none
      bin: none
  (3) neighbor class addition, perpetual
      attributes: half, newton on
      pair build: half/bin/newton
      stencil: half/bin/3d/newton
      bin: standard
Setting up cg style minimization ...
  Unit style    : real
Per MPI rank memory allocation (min/avg/max) = 40.82 | 40.82 | 40.82 Mbytes
Step Temp Press KinEng PotEng TotEng Density 
       0            0   -2421.2294            0   -4784.6119   -4784.6119   0.91018703 
     100            0   -1213.8404            0   -9340.1224   -9340.1224   0.91018703 
Loop time of 4.74144 on 12 procs for 100 steps with 13232 atoms

98.5% CPU use with 12 MPI tasks x 1 OpenMP threads

Minimization stats:
  Stopping criterion = max iterations
  Energy initial, next-to-last, final = 
        -4784.61193937     -9325.91832988     -9340.12244318
  Force two-norm initial, final = 818.064 99.6422
  Force max component initial, final = 29.1016 4.40529
  Final line search alpha, max atom move = 0.00454017 0.0200008
  Iterations, force evaluations = 100 199

MPI task timing breakdown:
Section |  min time  |  avg time  |  max time  |%varavg| %total
---------------------------------------------------------------
Pair    | 3.091      | 3.3404     | 3.5946     |   8.4 | 70.45
Bond    | 0.11558    | 0.12698    | 0.13594    |   2.1 |  2.68
Kspace  | 0.91019    | 1.1635     | 1.3854     |  12.3 | 24.54
Neigh   | 0          | 0          | 0          |   0.0 |  0.00
Comm    | 0.054114   | 0.093543   | 0.14978    |  10.4 |  1.97
Output  | 4.1962e-05 | 5.0426e-05 | 0.0001421  |   0.0 |  0.00
Modify  | 0.00042725 | 0.00045129 | 0.00047255 |   0.0 |  0.01
Other   |            | 0.01655    |            |       |  0.35

Nlocal:    1102.67 ave 1155 max 1046 min
Histogram: 4 0 0 0 0 3 1 0 1 3
Nghost:    8884.92 ave 9011 max 8766 min
Histogram: 3 1 0 0 3 1 0 0 3 1
Neighs:    1.50601e+06 ave 1.58344e+06 max 1.39921e+06 min
Histogram: 2 2 0 0 0 0 1 3 2 2

Total # of neighbors = 18072133
Ave neighs/atom = 1365.79
Ave special neighs/atom = 8.5127
Neighbor list builds = 0
Dangerous builds = 0
Ewald initialization ...
WARNING: Using 12-bit tables for long-range coulomb (../kspace.cpp:321)
  G vector (1/distance) = 0.140043
  estimated absolute RMS force accuracy = 0.0368424
  estimated relative force accuracy = 0.00011095
  KSpace vectors: actual max1d max3d = 769 8 2456
                  kxmax kymax kzmax  = 7 6 8
Setting up Verlet run ...
  Unit style    : real
  Current step  : 100
  Time step     : 1
Per MPI rank memory allocation (min/avg/max) = 39.71 | 39.71 | 39.71 Mbytes
Step Temp Press KinEng PotEng TotEng Density 
     100            0   -1213.8404            0   -9340.1224   -9340.1224   0.91018703 
     200    1.1730664   -1050.0923    46.264681   -9463.1001   -9416.8354   0.91018703 
     300    1.1586925   -991.20036    45.697786   -9528.8763   -9483.1786   0.91018703 
     400    1.2709947   -1094.5171    50.126885   -9573.2853   -9523.1584   0.91018703 
     500    1.4019324   -1122.3319    55.290951    -9613.215   -9557.9241   0.91018703 
     600    1.5943262   -1090.2759    62.878786   -9648.0105   -9585.1317   0.91018703 
     700    1.8320942   -1098.0783    72.256141   -9683.4045   -9611.1484   0.91018703 
     800    2.1062238   -1092.6387    83.067565   -9719.6598   -9636.5923   0.91018703 
     900     2.385544   -1086.5283    94.083704   -9757.1396   -9663.0559   0.91018703 
    1000    2.6955132   -1089.1259    106.30861   -9796.1092   -9689.8006   0.91018703 
    1100    2.9218027   -1066.9118    115.23326   -9831.0734   -9715.8401   0.91018703 
    1200    3.1606954   -1060.4964    124.65498   -9858.2654   -9733.6105   0.91018703 
    1300    3.4494346   -1081.4666    136.04259   -9890.0039   -9753.9613   0.91018703 
    1400    3.6946847    -1037.783    145.71503   -9923.9809   -9778.2659   0.91018703 
    1500    3.9176745   -1025.8591    154.50955   -9952.8801   -9798.3706   0.91018703 
    1600    4.1446364   -1060.7279    163.46072    -9979.794   -9816.3333   0.91018703 
    1700    4.4619868   -1047.0529    175.97673    -10008.34   -9832.3638   0.91018703 
    1800    4.7794716   -1057.2082    188.49805   -10032.515   -9844.0168   0.91018703 
    1900    5.0694449   -1054.7681    199.93433   -10056.818   -9856.8834   0.91018703 
    2000     5.302155   -1048.0131    209.11221   -10077.701   -9868.5884   0.91018703 
    2100    5.5171452   -1039.2039    217.59123    -10095.36    -9877.769   0.91018703 
    2200    5.8586476   -1060.5265    231.05978   -10110.746   -9879.6862   0.91018703 
    2300    6.1406748   -1028.8641    242.18267   -10126.911   -9884.7281   0.91018703 
    2400    6.3722302   -1064.7553    251.31501   -10144.777   -9893.4618   0.91018703 
    2500    6.5756595   -1027.5682    259.33808   -10154.538   -9895.2003   0.91018703 
    2600    6.7482518    -1055.066    266.14496   -10175.229   -9909.0837   0.91018703 
    2700    7.0632588   -1038.5655    278.56855   -10179.027   -9900.4583   0.91018703 
    2800    7.2967643   -1038.3231     287.7778   -10196.509   -9908.7307   0.91018703 
    2900    7.5301621   -1075.3312     296.9828   -10207.087   -9910.1041   0.91018703 
    3000    7.6633899   -1090.7028    302.23718   -10212.672   -9910.4347   0.91018703 
    3100    8.0376098   -1061.3536    316.99608   -10229.902   -9912.9061   0.91018703 
    3200    8.1594273   -1034.9315    321.80045   -10228.759   -9906.9581   0.91018703 
    3300    8.5248511   -1041.8235    336.21243   -10241.495   -9905.2828   0.91018703 
    3400    8.7332617   -1065.0085    344.43196   -10253.162   -9908.7296   0.91018703 
    3500    8.9031316   -1097.7398    351.13148   -10255.689   -9904.5577   0.91018703 
    3600    9.2243954   -1066.7762    363.80183   -10258.432   -9894.6306   0.91018703 
    3700    9.3027823   -1055.4417    366.89334   -10264.799   -9897.9057   0.91018703 
    3800    9.5081748   -1041.7652    374.99383    -10266.79   -9891.7964   0.91018703 
    3900    9.7141354    -1050.167    383.11673    -10276.25   -9893.1336   0.91018703 
    4000    9.8923194   -1073.4816    390.14415   -10281.471   -9891.3273   0.91018703 
    4100    9.9888035   -1087.4701     393.9494   -10276.164   -9882.2144   0.91018703 
    4200    10.260391   -1048.5644    404.66056   -10276.677   -9872.0169   0.91018703 
    4300    10.409361   -1053.6705    410.53581    -10280.34   -9869.8045   0.91018703 
    4400    10.578823   -1061.0047    417.21925   -10276.654   -9859.4352   0.91018703 
    4500    10.759642    -1105.456    424.35056   -10283.285    -9858.934   0.91018703 
    4600    10.995253   -1071.1989    433.64284   -10289.789   -9856.1464   0.91018703 
    4700    11.167024   -1063.3176    440.41737   -10288.734    -9848.317   0.91018703 
    4800    11.215587   -1051.5395    442.33261   -10293.926   -9851.5931   0.91018703 
    4900    11.361744   -1042.0693    448.09694   -10294.999   -9846.9016   0.91018703 
    5000    11.540003   -1069.5898    455.12731    -10297.75   -9842.6223   0.91018703 
    5100    11.864727   -1092.1268    467.93412   -10299.204   -9831.2703   0.91018703 
    5200    11.914506   -1091.1784    469.89736   -10293.528   -9823.6305   0.91018703 
    5300    11.921141   -1093.9746    470.15905   -10302.848   -9832.6886   0.91018703 
    5400    12.098786   -1068.8431    477.16519   -10298.829   -9821.6638   0.91018703 
    5500    12.341271   -1085.3792    486.72859   -10302.978   -9816.2491   0.91018703 
    5600    12.463387   -1064.1754    491.54475   -10299.703   -9808.1581   0.91018703 
    5700    12.666423   -1060.3425    499.55229   -10306.069   -9806.5171   0.91018703 
    5800    12.638204   -1061.2678    498.43936   -10298.048    -9799.609   0.91018703 
    5900    12.717281   -1074.5072    501.55808    -10309.59   -9808.0321   0.91018703 
    6000    13.071948   -1088.0492    515.54584   -10304.054   -9788.5081   0.91018703 
    6100      13.2518   -1043.7268    522.63903    -10309.61    -9786.971   0.91018703 
    6200    13.310294   -1034.6501    524.94599   -10314.334   -9789.3881   0.91018703 
    6300    13.257732   -1042.4697    522.87298   -10303.522   -9780.6487   0.91018703 
    6400    13.592664   -1090.1099    536.08241   -10313.593   -9777.5109   0.91018703 
    6500    13.720441   -1048.3927    541.12181   -10308.242   -9767.1201   0.91018703 
    6600    13.572995   -1055.7366    535.30667   -10313.242   -9777.9357   0.91018703 
    6700    14.181589    -1078.409    559.30907    -10319.72   -9760.4109   0.91018703 
    6800    14.043505   -1077.1862    553.86318   -10306.981   -9753.1182   0.91018703 
    6900    14.403544   -1100.9297    568.06278   -10319.135   -9751.0718   0.91018703 
    7000    14.511484   -1115.2358    572.31983   -10328.599   -9756.2788   0.91018703 
    7100    14.182623   -1115.5362    559.34984   -10317.446   -9758.0957   0.91018703 
    7200    14.567928   -1104.9441    574.54592   -10323.249   -9748.7033   0.91018703 
    7300    14.540482   -1029.0191    573.46349   -10314.956   -9741.4921   0.91018703 
    7400     14.78387   -1042.6268     583.0625   -10322.481   -9739.4188   0.91018703 
    7500     14.91373    -1071.391    588.18405   -10323.872   -9735.6882   0.91018703 
    7600    14.798226   -1076.1988    583.62868   -10330.371   -9746.7425   0.91018703 
    7700    15.083135   -1076.4475    594.86525   -10328.986   -9734.1207   0.91018703 
    7800    15.244476   -1053.0501    601.22838    -10330.76    -9729.532   0.91018703 
    7900    15.185107   -1120.7031     598.8869   -10324.322   -9725.4347   0.91018703 
    8000    15.328192   -1106.8563    604.53008   -10340.056   -9735.5264   0.91018703 
    8100    15.495835   -1069.5734    611.14177    -10344.51   -9733.3679   0.91018703 
    8200    15.701255   -1041.1032    619.24332   -10347.828   -9728.5843   0.91018703 
    8300    15.871274   -1050.2672    625.94871   -10355.073   -9729.1246   0.91018703 
    8400    15.869058   -1041.5899    625.86134   -10360.166   -9734.3051   0.91018703 
    8500    15.935188   -1061.8331    628.46945   -10352.228   -9723.7586   0.91018703 
    8600    16.080709   -1079.1133    634.20866   -10357.663    -9723.454   0.91018703 
    8700     16.20542    -1055.621    639.12714   -10362.298   -9723.1708   0.91018703 
    8800    16.445324   -1074.2341    648.58872   -10367.203    -9718.614   0.91018703 
    8900    16.373318   -1052.8556    645.74888   -10372.147    -9726.398   0.91018703 
    9000      16.4438   -1083.2354    648.52864   -10372.734   -9724.2051   0.91018703 
    9100    16.522505   -1076.2456     651.6327   -10360.897   -9709.2647   0.91018703 
    9200    17.073198   -1067.5668    673.35151   -10379.219   -9705.8674   0.91018703 
    9300    16.764028   -1061.2435    661.15816   -10379.405   -9718.2464   0.91018703 
    9400    16.970417   -1058.2753    669.29794   -10390.449   -9721.1513   0.91018703 
    9500    16.995749   -1002.3688    670.29699   -10390.853   -9720.5562   0.91018703 
    9600    17.132713   -1031.0398    675.69876    -10391.05   -9715.3514   0.91018703 
    9700    17.096379    -1039.459    674.26575   -10386.952   -9712.6863   0.91018703 
    9800    17.316133   -1040.5197    682.93266   -10384.623   -9701.6899   0.91018703 
    9900    17.485437   -1031.8139    689.60986   -10394.774   -9705.1641   0.91018703 
   10000    17.417637   -1064.7866    686.93589   -10394.199   -9707.2633   0.91018703 
   10100    17.521061   -1060.3688    691.01485   -10403.668   -9712.6531   0.91018703 
   10200    17.558541   -1071.7221    692.49302   -10395.067   -9702.5743   0.91018703 
   10300     17.39784   -1009.5994     686.1551   -10393.361   -9707.2064   0.91018703 
   10400    17.760909   -985.76296    700.47423   -10402.354   -9701.8796   0.91018703 
   10500    17.928694   -1045.6499     707.0915   -10403.719   -9696.6279   0.91018703 
   10600     17.98739   -1076.1273    709.40643   -10395.513   -9686.1066   0.91018703 
   10700    18.022085   -1049.4538    710.77477   -10408.633   -9697.8581   0.91018703 
   10800    18.116712   -1016.9699    714.50678   -10413.022   -9698.5157   0.91018703 
   10900    18.197573   -1034.9064    717.69587    -10401.57   -9683.8741   0.91018703 
   11000    18.238802    -1011.143    719.32191   -10395.635   -9676.3135   0.91018703 
   11100    18.508762   -1010.3587    729.96886   -10404.051   -9674.0825   0.91018703 
   11200    18.504089   -1010.1183    729.78457   -10401.468   -9671.6834   0.91018703 
   11300    18.470475   -1002.4514    728.45887   -10402.965   -9674.5065   0.91018703 
   11400     18.68535   -985.78636    736.93334   -10402.329   -9665.3955   0.91018703 
   11500    18.907574   -1069.4132    745.69766   -10401.812   -9656.1145   0.91018703 
   11600    18.720946   -1052.4969    738.33721   -10392.221   -9653.8841   0.91018703 
   11700    18.833679   -980.33811    742.78332   -10403.209   -9660.4258   0.91018703 
   11800    18.939922   -1014.3082    746.97343   -10409.723   -9662.7496   0.91018703 
   11900    19.151278   -992.44474    755.30914    -10409.82   -9654.5111   0.91018703 
   12000    19.207891   -943.94369    757.54189   -10408.499   -9650.9573   0.91018703 
   12100    19.385981   -1019.7177    764.56561   -10397.018   -9632.4527   0.91018703 
   12200    19.073505   -1015.7592    752.24185    -10402.42   -9650.1783   0.91018703 
   12300    19.502313   -964.13655    769.15363   -10398.575   -9629.4214   0.91018703 
   12400    19.505736   -1023.6312    769.28865    -10418.05   -9648.7614   0.91018703 
   12500    19.477287   -1026.3561    768.16663   -10407.914   -9639.7471   0.91018703 
   12600    19.492437   -970.54013    768.76415   -10413.116   -9644.3519   0.91018703 
   12700    19.876742   -1001.2881    783.92075   -10395.649   -9611.7282   0.91018703 
   12800    19.959891   -1011.0921    787.20008   -10404.019   -9616.8186   0.91018703 
   12900    19.862874   -979.01633    783.37384   -10404.828   -9621.4542   0.91018703 
   13000    19.768996   -1008.5594    779.67136   -10404.921   -9625.2498   0.91018703 
   13100    20.191494   -963.08369     796.3343    -10407.03   -9610.6954   0.91018703 
   13200    19.978819   -1000.9936    787.94661   -10402.805   -9614.8582   0.91018703 
   13300    20.362175   -945.90177    803.06582   -10400.402   -9597.3364   0.91018703 
   13400    20.172899   -945.98146    795.60094   -10404.604   -9609.0031   0.91018703 
   13500    20.239006    -971.4718    798.20812   -10394.434   -9596.2257   0.91018703 
   13600    20.350093     -988.458    802.58932    -10402.46   -9599.8706   0.91018703 
   13700    20.432379   -939.12977    805.83458   -10413.365   -9607.5305   0.91018703 
   13800    20.824577   -913.09321    821.30253   -10415.935   -9594.6321   0.91018703 
   13900     20.49026   -974.13328    808.11738   -10406.649   -9598.5315   0.91018703 
   14000    20.949886   -962.95975     826.2446    -10413.44   -9587.1959   0.91018703 
   14100    20.692555   -983.42706    816.09569   -10400.074   -9583.9783   0.91018703 
   14200    20.835749   -919.71078    821.74313    -10422.42   -9600.6773   0.91018703 
   14300    20.849661   -908.16088    822.29181   -10401.456   -9579.1646   0.91018703 
   14400    21.076454   -952.39564    831.23633   -10385.758   -9554.5216   0.91018703 
   14500    21.070088   -935.76485    830.98525   -10399.137   -9568.1518   0.91018703 
   14600    20.976166   -960.73186    827.28105   -10398.126   -9570.8445   0.91018703 
   14700    21.159623   -913.85038    834.51644    -10403.86    -9569.344   0.91018703 
   14800    21.196879   -918.96857    835.98578   -10400.615   -9564.6297   0.91018703 
   14900    21.346243   -963.10229    841.87658   -10391.861   -9549.9846   0.91018703 
   15000    21.384731   -960.52341    843.39451   -10395.125   -9551.7302   0.91018703 
   15100    21.572723   -887.11934    850.80872   -10407.274   -9556.4649   0.91018703 
   15200    21.468254   -851.20632    846.68856     -10389.8   -9543.1114   0.91018703 
   15300    21.558748   -921.54545    850.25756   -10385.119   -9534.8615   0.91018703 
   15400    21.844796   -922.79063    861.53906   -10389.128    -9527.589   0.91018703 
   15500    21.779863   -956.84645    858.97815   -10386.591   -9527.6126   0.91018703 
   15600    21.926234   -941.91102    864.75088    -10392.49   -9527.7391   0.91018703 
   15700    21.814628    -908.2967    860.34924   -10379.687   -9519.3381   0.91018703 
   15800    22.037538    -885.5935     869.1406   -10382.418   -9513.2771   0.91018703 
   15900    22.076197   -919.21281    870.66531   -10383.027   -9512.3614   0.91018703 
   16000    22.149699   -954.64458    873.56414   -10371.267   -9497.7033   0.91018703 
   16100    22.088847     -918.721    871.16421   -10381.523   -9510.3586   0.91018703 
   16200    22.127951   -949.73995    872.70641   -10373.014   -9500.3074   0.91018703 
   16300    22.366365   -913.11939    882.10927   -10384.882   -9502.7727   0.91018703 
   16400    22.504776   -876.89291    887.56805   -10372.108   -9484.5398   0.91018703 
   16500     22.59274   -865.37576    891.03727   -10379.586   -9488.5491   0.91018703 
   16600    22.382815   -952.88507    882.75803   -10384.944   -9502.1861   0.91018703 
   16700    22.394245   -963.46797    883.20883   -10377.383   -9494.1743   0.91018703 
   16800    22.655962   -900.11768    893.53072   -10375.732   -9482.2015   0.91018703 
   16900    22.828476   -884.89505     900.3345   -10380.107   -9479.7726   0.91018703 
   17000    22.678954   -926.16193    894.43748   -10363.288   -9468.8506   0.91018703 
   17100    22.688573   -937.01832    894.81683    -10368.83   -9474.0135   0.91018703 
   17200    22.982366   -889.41671    906.40379   -10371.382   -9464.9785   0.91018703 
   17300    23.070628   -896.74635    909.88475   -10379.256   -9469.3714   0.91018703 
   17400    22.873707   -934.31053    902.11837    -10364.84   -9462.7215   0.91018703 
   17500    23.177688   -957.34848    914.10711   -10364.366   -9450.2593   0.91018703 
   17600    22.862373    -929.6601    901.67137   -10357.284   -9455.6125   0.91018703 
   17700    23.283204   -883.46645    918.26856   -10352.208    -9433.939   0.91018703 
   17800    23.488468   -915.87411    926.36398   -10361.827   -9435.4635   0.91018703 
   17900    23.195013   -953.63178    914.79039     -10358.6   -9443.8101   0.91018703 
   18000     23.34059   -924.19288    920.53181   -10353.299   -9432.7676   0.91018703 
   18100     23.75822   -895.21995    937.00275   -10362.234   -9425.2315   0.91018703 
   18200     23.32743     -881.402    920.01278   -10347.978   -9427.9655   0.91018703 
   18300    23.593298   -814.50692    930.49837   -10355.848   -9425.3497   0.91018703 
   18400    23.393211   -822.02361    922.60714   -10372.229   -9449.6217   0.91018703 
   18500    23.476279    -899.3194    925.88327   -10358.872   -9432.9888   0.91018703 
   18600    24.088202   -918.64051    950.01697   -10362.603   -9412.5858   0.91018703 
   18700    23.871542   -918.51431    941.47206    -10358.76   -9417.2876   0.91018703 
   18800    23.746568   -863.08687    936.54323   -10349.926   -9413.3829   0.91018703 
   18900    24.116554   -881.91645    951.13513   -10355.026   -9403.8911   0.91018703 
   19000     23.93989   -915.94132    944.16767   -10353.156   -9408.9879   0.91018703 
   19100    24.105066   -950.28496    950.68205   -10351.189   -9400.5072   0.91018703 
   19200    24.052209   -931.99105    948.59741   -10333.773   -9385.1757   0.91018703 
   19300    24.370631   -910.14512    961.15569   -10342.673   -9381.5172   0.91018703 
   19400    24.263129   -872.76358    956.91592   -10338.915   -9381.9989   0.91018703 
   19500    24.390715   -883.31473     961.9478    -10344.71   -9382.7623   0.91018703 
   19600    24.604251   -873.95419    970.36944   -10333.534   -9363.1648   0.91018703 
   19700    24.685416   -880.44055    973.57054   -10338.454   -9364.8837   0.91018703 
   19800    24.317827   -896.26277    959.07317   -10333.031   -9373.9581   0.91018703 
   19900    24.786447   -914.13305    977.55512   -10332.702   -9355.1469   0.91018703 
   20000    24.550027   -923.82191     968.2309   -10335.568   -9367.3374   0.91018703 
   20100    24.262497   -893.39312    956.89098   -10337.822   -9380.9313   0.91018703 
   20200    24.359713   -901.98826    960.72511   -10339.803   -9379.0774   0.91018703 
   20300    24.689506   -852.55789    973.73184   -10327.931   -9354.1994   0.91018703 
   20400    24.937294   -897.57654    983.50436   -10331.721   -9348.2163   0.91018703 
   20500    24.388226   -801.78729    961.84963   -10305.792   -9343.9427   0.91018703 
   20600    25.223835   -881.00845    994.80531   -10329.506   -9334.7003   0.91018703 
   20700     25.16299   -912.13875    992.40563   -10307.242   -9314.8362   0.91018703 
   20800    25.329795   -840.42133    998.98425    -10318.39   -9319.4061   0.91018703 
   20900    25.042281   -924.68327    987.64496   -10314.674   -9327.0292   0.91018703 
   21000    25.088241   -880.57644    989.45759   -10323.557   -9334.0994   0.91018703 
   21100    25.373756   -908.25385     1000.718   -10311.707   -9310.9887   0.91018703 
   21200    25.536443   -881.62876    1007.1343   -10323.796   -9316.6619   0.91018703 
   21300    25.128899   -847.54006    991.06109   -10309.179   -9318.1182   0.91018703 
   21400    25.690756   -851.98457    1013.2203   -10303.697   -9290.4763   0.91018703 
   21500    25.418978   -838.55924    1002.5015   -10310.739   -9308.2374   0.91018703 
   21600    25.558397    -822.8855    1008.0001   -10305.271    -9297.271   0.91018703 
   21700    25.814414   -853.58168    1018.0972   -10305.114   -9287.0167   0.91018703 
   21800    25.514614   -855.90578    1006.2734   -10299.888   -9293.6148   0.91018703 
   21900    25.781765   -909.37817    1016.8096   -10310.394   -9293.5849   0.91018703 
   22000    25.581071   -877.22881    1008.8944   -10310.235   -9301.3403   0.91018703 
   22100    25.922769   -876.19369    1022.3706   -10294.441     -9272.07   0.91018703 
   22200     26.30666   -860.29159    1037.5109   -10307.022   -9269.5109   0.91018703 
   22300    26.124626   -825.80835    1030.3317   -10305.726   -9275.3939   0.91018703 
   22400    26.235871   -790.94094    1034.7191   -10294.307   -9259.5884   0.91018703 
   22500    26.224571   -843.23137    1034.2734   -10293.372   -9259.0986   0.91018703 
   22600     26.59285   -838.96508     1048.798   -10299.844   -9251.0458   0.91018703 
   22700    25.978857   -909.61104    1024.5827   -10306.032   -9281.4497   0.91018703 
   22800    26.386084   -839.58828    1040.6433   -10302.201   -9261.5576   0.91018703 
   22900    26.282835   -875.77505    1036.5713   -10277.067   -9240.4959   0.91018703 
   23000    26.792374   -821.27687    1056.6671   -10281.113   -9224.4459   0.91018703 
   23100    26.482018   -766.22914    1044.4269   -10290.474   -9246.0472   0.91018703 
   23200    26.484752   -779.20465    1044.5347   -10306.073   -9261.5387   0.91018703 
   23300    26.694867    -915.1736    1052.8215    -10299.71   -9246.8882   0.91018703 
   23400    26.560198   -868.68435    1047.5102   -10288.018   -9240.5076   0.91018703 
   23500    27.024781   -845.53027     1065.833   -10304.702   -9238.8694   0.91018703 
   23600    26.615146   -797.84218    1049.6773   -10291.795    -9242.118   0.91018703 
   23700    26.919529   -818.21629    1061.6819   -10288.262   -9226.5799   0.91018703 
   23800    26.826285   -822.14829    1058.0045   -10281.252   -9223.2479   0.91018703 
   23900    27.231375   -773.21393    1073.9809   -10272.535   -9198.5541   0.91018703 
   24000    26.797499   -866.73362    1056.8692   -10291.372   -9234.5033   0.91018703 
   24100    26.950401   -762.53349    1062.8995   -10269.483   -9206.5831   0.91018703 
   24200    26.887425   -774.65182    1060.4158   -10282.924   -9222.5082   0.91018703 
   24300    27.119016   -849.27839    1069.5495   -10265.574   -9196.0245   0.91018703 
   24400     27.14171   -884.55583    1070.4445   -10276.216   -9205.7711   0.91018703 
   24500    27.391903   -846.50369    1080.3119   -10286.005   -9205.6933   0.91018703 
   24600    27.215942   -860.64272    1073.3722   -10279.698   -9206.3257   0.91018703 
   24700    27.384942   -754.52163    1080.0374   -10279.856   -9199.8184   0.91018703 
   24800    27.549192   -805.87819    1086.5153   -10270.806   -9184.2903   0.91018703 
   24900     27.45592   -812.59922    1082.8367   -10285.326   -9202.4894   0.91018703 
   25000    27.219541   -835.08785    1073.5141    -10270.79   -9197.2756   0.91018703 
   25100    27.304835   -842.92612    1076.8781   -10262.953   -9186.0753   0.91018703 
   25200    27.608057   -836.83503    1088.8369   -10285.889   -9197.0523   0.91018703 
   25300    27.551672   -770.04954    1086.6131    -10247.52   -9160.9065   0.91018703 
   25400    27.877724   -773.14946    1099.4723    -10257.46   -9157.9881   0.91018703 
   25500    27.677662   -791.52724     1091.582    -10251.79   -9160.2081   0.91018703 
   25600    27.747147   -802.95936    1094.3224   -10255.279   -9160.9569   0.91018703 
   25700    27.868229   -855.45759    1099.0978   -10255.217   -9156.1188   0.91018703 
   25800    27.602851   -830.75492    1088.6315   -10260.196   -9171.5649   0.91018703 
   25900    28.232841    -795.0356    1113.4778   -10255.431   -9141.9535   0.91018703 
   26000    27.958988   -825.13579    1102.6773   -10258.312   -9155.6349   0.91018703 
   26100    28.182817   -846.14074    1111.5049   -10258.898   -9147.3932   0.91018703 
   26200    28.372647   -811.37734    1118.9916   -10268.661    -9149.669   0.91018703 
   26300    28.262523   -738.24273    1114.6484   -10262.609   -9147.9605   0.91018703 
   26400    28.341769   -838.28134    1117.7738   -10258.844   -9141.0705   0.91018703 
   26500    28.161104   -792.80411    1110.6486   -10256.616   -9145.9675   0.91018703 
   26600    28.537504   -752.54226    1125.4934   -10260.273     -9134.78   0.91018703 
   26700    28.547302   -797.48917    1125.8798   -10258.565   -9132.6852   0.91018703 
   26800    28.426137   -731.97312    1121.1012   -10245.416   -9124.3148   0.91018703 
   26900    27.776674   -843.79223     1095.487   -10248.697   -9153.2099   0.91018703 
   27000    28.672121   -807.41939    1130.8026   -10234.406   -9103.6039   0.91018703 
   27100    28.311256   -809.73135    1116.5704   -10249.691   -9133.1207   0.91018703 
   27200    28.880866   -813.66315    1139.0353    -10246.11   -9107.0743   0.91018703 
   27300    28.764351   -896.43666    1134.4401   -10256.439   -9121.9993   0.91018703 
   27400    28.697954   -795.14469    1131.8214   -10251.082   -9119.2609   0.91018703 
   27500    28.559679   -735.44149     1126.368   -10238.159   -9111.7906   0.91018703 
   27600    28.828104    -754.4188    1136.9544   -10229.071   -9092.1163   0.91018703 
   27700    29.378475   -854.56319    1158.6606   -10215.539   -9056.8783   0.91018703 
   27800    28.977344   -850.10385    1142.8403   -10239.811   -9096.9706   0.91018703 
   27900    29.076364   -826.92278    1146.7456   -10231.615   -9084.8698   0.91018703 
   28000    29.193369   -795.04499    1151.3601   -10235.953   -9084.5931   0.91018703 
   28100    28.969554   -878.81906    1142.5331    -10217.26   -9074.7272   0.91018703 
   28200    29.238037   -812.00515    1153.1218     -10243.4   -9090.2779   0.91018703 
   28300    29.280826   -837.77551    1154.8093   -10240.847   -9086.0381   0.91018703 
   28400    29.288234   -822.68387    1155.1015   -10244.164   -9089.0624   0.91018703 
   28500    29.378689   -808.28478     1158.669   -10218.048   -9059.3793   0.91018703 
   28600    29.389144   -792.14298    1159.0813   -10236.119    -9077.038   0.91018703 
   28700    29.155568   -747.79084    1149.8693   -10231.238   -9081.3691   0.91018703 
   28800    29.623274   -869.36172    1168.3152    -10222.86   -9054.5443   0.91018703 
   28900    29.353459   -818.68697    1157.6739    -10215.69   -9058.0165   0.91018703 
   29000    29.473442   -753.01068     1162.406   -10244.463   -9082.0569   0.91018703 
   29100    29.548305   -827.27153    1165.3585   -10225.651    -9060.293   0.91018703 
   29200    29.187998   -783.90182    1151.1483   -10204.453   -9053.3049   0.91018703 
   29300     29.32174   -771.38085     1156.423   -10207.264   -9050.8411   0.91018703 
   29400    29.857199   -752.78669     1177.541   -10208.989   -9031.4479   0.91018703 
   29500    29.620317    -828.3819    1168.1986   -10231.486   -9063.2872   0.91018703 
   29600    29.657803   -803.28111     1169.677   -10208.733    -9039.056   0.91018703 
   29700     29.58732   -788.08409    1166.8972   -10217.229   -9050.3321   0.91018703 
   29800    30.158942   -825.11712    1189.4415   -10220.783    -9031.342   0.91018703 
   29900    30.475728   -751.00668    1201.9352   -10205.259   -9003.3239   0.91018703 
   30000    30.122419    -808.1802     1188.001   -10206.313   -9018.3125   0.91018703 
   30100    30.438375   -798.05785    1200.4621   -10198.959   -8998.4972   0.91018703 
   30200    30.302525   -841.22406    1195.1042   -10193.303   -8998.1987   0.91018703 
   30300     30.31265   -730.55142    1195.5036   -10201.535   -9006.0314   0.91018703 
   30400    30.520642   -751.66732    1203.7066   -10204.254   -9000.5471   0.91018703 
   30500    30.629761   -743.56224    1208.0101   -10202.801   -8994.7912   0.91018703 
   30600    30.478582   -768.31513    1202.0478    -10190.36    -8988.312   0.91018703 
   30700    30.474443    -812.8397    1201.8845   -10173.809   -8971.9241   0.91018703 
   30800     30.31266   -756.28579     1195.504   -10190.197   -8994.6931   0.91018703 
   30900    30.716752   -755.69954     1211.441   -10191.695   -8980.2544   0.91018703 
   31000    30.867749   -790.55912    1217.3962   -10188.576   -8971.1799   0.91018703 
   31100    30.462101   -839.95916    1201.3978   -10184.373    -8982.975   0.91018703 
   31200    31.062332   -807.83572    1225.0704    -10191.76   -8966.6896   0.91018703 
   31300     30.68863   -851.73719    1210.3319   -10189.896   -8979.5644   0.91018703 
   31400    30.422612   -870.15608    1199.8404   -10165.979   -8966.1389   0.91018703 
   31500    31.091706   -788.82629    1226.2288   -10176.228   -8949.9987   0.91018703 
   31600    30.535208   -750.16162    1204.2811   -10165.914   -8961.6331   0.91018703 
   31700    30.727311   -839.00648    1211.8574   -10169.171   -8957.3134   0.91018703 
   31800    31.057651   -811.13541    1224.8857   -10185.072   -8960.1867   0.91018703 
   31900    31.194831   -816.38669     1230.296    -10171.39    -8941.094   0.91018703 
   32000    31.053849   -802.32589    1224.7358   -10153.872   -8929.1357   0.91018703 
   32100    31.206902   -767.71272    1230.7721   -10167.488   -8936.7158   0.91018703 
   32200    31.164735   -800.75056     1229.109   -10157.656   -8928.5469   0.91018703 
   32300    31.009818   -798.35087    1222.9993   -10170.985    -8947.986   0.91018703 
   32400    31.613032   -840.49419    1246.7894   -10159.768   -8912.9785   0.91018703 
   32500     31.33713   -763.44705    1235.9081   -10157.537   -8921.6287   0.91018703 
   32600    31.571946   -821.38608     1245.169   -10159.313   -8914.1441   0.91018703 
   32700    31.702042   -767.46499    1250.2999   -10165.328   -8915.0279   0.91018703 
   32800     31.31755   -800.80208    1235.1359   -10157.993   -8922.8568   0.91018703 
   32900    31.427623   -857.19808    1239.4771   -10133.607   -8894.1303   0.91018703 
   33000    32.019936   -830.27748    1262.8374   -10164.527   -8901.6896   0.91018703 
   33100    31.386292   -812.92158     1237.847   -10164.346   -8926.4993   0.91018703 
   33200    31.915168    -893.0026    1258.7054   -10145.708   -8887.0022   0.91018703 
   33300    31.623167   -816.19158    1247.1892   -10155.869   -8908.6794   0.91018703 
   33400    31.413202   -763.20251    1238.9083    -10130.58   -8891.6721   0.91018703 
   33500    32.139054     -854.244    1267.5353   -10159.026   -8891.4908   0.91018703 
   33600    31.747255   -803.36854    1252.0831    -10150.79   -8898.7069   0.91018703 
   33700    32.024002   -804.59853    1262.9977   -10166.274   -8903.2761   0.91018703 
   33800     31.79512   -756.31911    1253.9709   -10155.075   -8901.1039   0.91018703 
   33900    31.521909   -777.25464    1243.1956   -10163.479   -8920.2837   0.91018703 
   34000    32.325944   -772.82394    1274.9061   -10143.715   -8868.8089   0.91018703 
   34100    32.543234   -754.82983    1283.4758   -10142.319   -8858.8427   0.91018703 
   34200    31.694187   -782.20822    1249.9901    -10146.94   -8896.9498   0.91018703 
   34300    32.139577   -795.68766    1267.5559   -10133.619   -8866.0633   0.91018703 
   34400     32.36439   -744.62848    1276.4223   -10160.643   -8884.2208   0.91018703 
   34500    32.164617   -770.08433    1268.5435   -10157.285   -8888.7413   0.91018703 
   34600    32.291694   -827.99093    1273.5553   -10141.855   -8868.2993   0.91018703 
   34700    32.246658   -775.18687    1271.7791   -10150.719   -8878.9396   0.91018703 
   34800     32.46056   -834.79813    1280.2152   -10142.851   -8862.6361   0.91018703 
   34900     32.63356   -823.17506    1287.0382   -10172.331    -8885.293   0.91018703 
   35000    32.591645   -803.37644    1285.3851   -10143.851   -8858.4663   0.91018703 
   35100    32.590137    -789.9623    1285.3256   -10133.981   -8848.6555   0.91018703 
   35200     32.57999    -767.4697    1284.9254    -10156.78    -8871.855   0.91018703 
   35300    32.736802   -724.51512    1291.1099   -10156.318    -8865.208   0.91018703 
   35400    32.729915   -848.92651    1290.8383   -10149.962   -8859.1241   0.91018703 
   35500    32.779913   -815.05043    1292.8102   -10163.138   -8870.3275   0.91018703 
   35600     32.66912   -731.72722    1288.4406   -10119.324   -8830.8833   0.91018703 
   35700     33.04321   -804.03263    1303.1944   -10128.401   -8825.2067   0.91018703 
   35800    32.618964   -817.08733    1286.4625   -10146.403   -8859.9404   0.91018703 
   35900    33.147972   -849.00772    1307.3261   -10151.768   -8844.4422   0.91018703 
   36000    33.013159   -746.20455    1302.0092   -10144.404   -8842.3953   0.91018703 
   36100    32.998341   -746.46941    1301.4248   -10124.032   -8822.6073   0.91018703 
   36200    32.911248   -743.60941    1297.9899   -10139.825   -8841.8351   0.91018703 
   36300    32.647541    -724.4921    1287.5896   -10136.604   -8849.0147   0.91018703 
   36400    32.933675   -752.95118    1298.8744   -10142.989   -8844.1146   0.91018703 
   36500    33.126305   -798.13508    1306.4716   -10127.155   -8820.6834   0.91018703 
   36600    33.092046   -770.75532    1305.1204   -10105.509   -8800.3881   0.91018703 
   36700    33.659452   -735.42728    1327.4984   -10130.235   -8802.7361   0.91018703 
   36800    32.788297   -777.12587    1293.1409   -10127.886   -8834.7456   0.91018703 
   36900    33.310317   -863.60495    1313.7289   -10139.743   -8826.0144   0.91018703 
   37000    33.620098   -702.94878    1325.9463    -10124.63   -8798.6837   0.91018703 
   37100    33.630838   -739.14365    1326.3699   -10126.018   -8799.6478   0.91018703 
   37200    33.349238   -774.14672    1315.2639   -10119.288   -8804.0242   0.91018703 
   37300    33.323818   -687.60527    1314.2613   -10108.487   -8794.2257   0.91018703 
   37400    33.837558   -772.77149    1334.5227   -10124.652   -8790.1291   0.91018703 
   37500    33.516778   -807.10199    1321.8715    -10125.35   -8803.4785   0.91018703 
   37600    33.249994   -773.22406    1311.3497   -10104.308   -8792.9578   0.91018703 
   37700    33.886003   -781.47526    1336.4334   -10117.471   -8781.0378   0.91018703 
   37800    33.900054   -757.20764    1336.9876   -10112.276   -8775.2887   0.91018703 
   37900    34.156116   -706.48058    1347.0864   -10122.239   -8775.1529   0.91018703 
   38000    34.005593   -722.31321    1341.1499   -10115.977   -8774.8271   0.91018703 
   38100    34.399487   -749.33372    1356.6847   -10125.905   -8769.2204   0.91018703 
   38200    33.798418   -788.86439    1332.9791   -10110.107   -8777.1277   0.91018703 
   38300    34.185675   -798.28205    1348.2522   -10128.946   -8780.6941   0.91018703 
   38400    33.926307   -743.09612    1338.0229   -10120.056   -8782.0334   0.91018703 
   38500    33.799698   -724.00324    1333.0296    -10111.16   -8778.1305   0.91018703 
   38600    34.652148   -762.21029    1366.6495   -10102.219   -8735.5692   0.91018703 
   38700    34.396399   -783.40019     1356.563   -10099.099   -8742.5356   0.91018703 
   38800    33.697874   -736.55733    1329.0137   -10084.391   -8755.3774   0.91018703 
   38900    34.465311   -807.17922    1359.2808   -10116.872   -8757.5911   0.91018703 
   39000    34.155236   -725.92833    1347.0517   -10094.713   -8747.6618   0.91018703 
   39100     34.94583   -762.53156     1378.232   -10115.526   -8737.2936   0.91018703 
   39200    34.360937   -730.08032    1355.1644    -10097.79   -8742.6253   0.91018703 
   39300    34.302078   -724.29487     1352.843   -10102.012   -8749.1695   0.91018703 
   39400    34.629864   -721.89267    1365.7706   -10097.876   -8732.1054   0.91018703 
   39500    34.586657   -732.49391    1364.0666   -10092.245   -8728.1782   0.91018703 
   39600    34.290639   -743.02568    1352.3919   -10092.437   -8740.0453   0.91018703 
   39700    34.145087    -733.0129    1346.6514   -10080.365   -8733.7133   0.91018703 
   39800    34.673617   -708.19383    1367.4962   -10066.999   -8699.5031   0.91018703 
   39900    34.779064    -805.9516    1371.6549   -10100.339   -8728.6837   0.91018703 
   40000    34.292998    -780.2756    1352.4849   -10096.245   -8743.7606   0.91018703 
   40100    34.488246   -713.78124    1360.1853   -10085.468   -8725.2824   0.91018703 
   40200    35.357139   -700.29938    1394.4536   -10099.274   -8704.8207   0.91018703 
   40300     34.43996   -739.00579    1358.2809   -10079.493   -8721.2124   0.91018703 
   40400    34.941278   -807.89676    1378.0525   -10076.302   -8698.2493   0.91018703 
   40500    34.800135   -786.37504    1372.4859   -10087.061   -8714.5749   0.91018703 
   40600    34.996026   -801.04535    1380.2117   -10076.968   -8696.7566   0.91018703 
   40700    34.861092    -813.5781      1374.89   -10080.046   -8705.1563   0.91018703 
   40800    34.489879   -757.67347    1360.2497   -10053.297    -8693.047   0.91018703 
   40900    35.048333   -703.51022    1382.2746   -10061.689   -8679.4142   0.91018703 
   41000    35.180319   -682.05801      1387.48   -10068.426   -8680.9458   0.91018703 
   41100    35.470682   -701.94965    1398.9317    -10078.14   -8679.2079   0.91018703 
   41200     34.84265   -751.15767    1374.1627   -10041.127   -8666.9642   0.91018703 
   41300    35.383937   -763.48561    1395.5105   -10070.964   -8675.4533   0.91018703 
   41400    35.459786   -730.60974     1398.502   -10063.101   -8664.5987   0.91018703 
   41500    35.127741   -718.74216    1385.4064    -10077.42   -8692.0139   0.91018703 
   41600    34.735209   -792.93649    1369.9253   -10064.274   -8694.3485   0.91018703 
   41700    35.229806   -745.31412    1389.4318   -10066.243   -8676.8112   0.91018703 
   41800    35.718442   -707.94606    1408.7031   -10073.129   -8664.4257   0.91018703 
   41900    35.405695   -729.93684    1396.3687   -10073.579   -8677.2099   0.91018703 
   42000    35.104915   -682.22563    1384.5062   -10046.071   -8661.5643   0.91018703 
   42100    35.600352   -744.41111    1404.0458    -10046.24   -8642.1938   0.91018703 
   42200     35.61468   -705.66602    1404.6109   -10049.923   -8645.3123   0.91018703 
   42300    35.514681   -706.54864     1400.667   -10070.622   -8669.9546   0.91018703 
   42400    35.157065   -743.85059    1386.5629   -10072.815   -8686.2525   0.91018703 
   42500    35.607584   -758.92247     1404.331    -10048.79   -8644.4594   0.91018703 
   42600    35.536191   -737.46509    1401.5153   -10067.534   -8666.0188   0.91018703 
   42700     35.96655   -752.48268    1418.4883   -10053.184   -8634.6962   0.91018703 
   42800    36.476708   -712.75363    1438.6085   -10070.615   -8632.0069   0.91018703 
   42900    35.669739    -745.3231    1406.7823   -10053.935   -8647.1526   0.91018703 
   43000    35.813193   -785.12179      1412.44   -10059.769   -8647.3291   0.91018703 
   43100    35.820387   -797.10633    1412.7238   -10030.806   -8618.0819   0.91018703 
   43200    36.015586   -733.08968    1420.4222   -10046.674   -8626.2519   0.91018703 
   43300    36.275897   -718.83228    1430.6887   -10045.279   -8614.5898   0.91018703 
   43400    36.045987    -787.7589    1421.6212   -10051.225   -8629.6043   0.91018703 
   43500    36.092915   -791.50847     1423.472   -10038.659   -8615.1869   0.91018703 
   43600    36.265019   -749.23102    1430.2596    -10030.66   -8600.4005   0.91018703 
   43700     36.50022   -709.38012    1439.5357   -10042.707   -8603.1711   0.91018703 
   43800    37.002829    -711.9946    1459.3582   -10049.243   -8589.8848   0.91018703 
   43900    36.213983   -740.60277    1428.2468   -10031.221   -8602.9744   0.91018703 
   44000    36.936348   -704.76805    1456.7363   -10022.689   -8565.9527   0.91018703 
   44100     36.77244   -748.86078    1450.2718   -10015.758   -8565.4866   0.91018703 
   44200    36.480015   -762.72214    1438.7389   -10036.886   -8598.1471   0.91018703 
   44300    36.099057   -748.33637    1423.7143   -10017.791   -8594.0768   0.91018703 
   44400    36.779609   -740.88778    1450.5546   -10036.139   -8585.5846   0.91018703 
   44500    36.879139   -706.60979      1454.48   -10029.721   -8575.2413   0.91018703 
   44600    36.535205   -699.17502    1440.9155   -10036.373   -8595.4578   0.91018703 
   44700    36.119673   -712.53104    1424.5273   -10028.286   -8603.7592   0.91018703 
   44800    36.989887    -782.2534    1458.8478   -10041.093    -8582.245   0.91018703 
   44900    36.871662   -738.97611    1454.1851   -10029.124    -8574.939   0.91018703 
   45000    37.235573   -747.66309    1468.5374   -10047.204   -8578.6663   0.91018703 
   45100     37.39717   -680.47726    1474.9107   -10027.794   -8552.8833   0.91018703 
   45200    37.037595   -748.20666    1460.7293   -10013.926   -8553.1966   0.91018703 
   45300    36.912157   -709.54213    1455.7822   -10005.113   -8549.3307   0.91018703 
   45400     37.40183   -732.97672    1475.0944   -10027.717   -8552.6225   0.91018703 
   45500    37.356481   -730.04694    1473.3059   -10040.007   -8566.7014   0.91018703 
   45600    37.322527   -834.15686    1471.9668   -10041.272   -8569.3051   0.91018703 
   45700    37.341703   -810.41357    1472.7231   -10025.181   -8552.4582   0.91018703 
   45800    37.709272   -739.91939    1487.2197   -10016.724   -8529.5046   0.91018703 
   45900    37.444155   -760.27096    1476.7637   -10008.041   -8531.2771   0.91018703 
   46000    36.653368   -808.95624    1445.5757   -9989.6108   -8544.0351   0.91018703 
   46100    37.265603   -707.82038    1469.7218   -10014.098   -8544.3759   0.91018703 
   46200    37.116584   -713.62316    1463.8446   -10000.702   -8536.8577   0.91018703 
   46300    37.689187   -630.37522    1486.4275   -10006.856   -8520.4289   0.91018703 
   46400    37.944067   -721.54261    1496.4798   -9984.8705   -8488.3907   0.91018703 
   46500    37.957539   -716.12184    1497.0111   -10016.895   -8519.8836   0.91018703 
   46600    37.728969   -717.95192    1487.9965   -10020.022   -8532.0258   0.91018703 
   46700    38.040516    -752.6162    1500.2836   -10007.437   -8507.1534   0.91018703 
   46800    37.538038   -834.16987    1480.4664     -10013.5    -8533.034   0.91018703 
   46900    37.833926   -722.41558    1492.1359   -9995.1216   -8502.9857   0.91018703 
   47000    37.954028   -714.95288    1496.8726   -10011.915   -8515.0424   0.91018703 
   47100    37.974402   -669.95399    1497.6762   -9997.2209   -8499.5447   0.91018703 
   47200    37.498177   -747.64336    1478.8943   -10000.706   -8521.8119   0.91018703 
   47300    37.628032   -776.32336    1484.0156   -9981.3205   -8497.3049   0.91018703 
   47400    37.603809   -801.12497    1483.0603   -9987.2933    -8504.233   0.91018703 
   47500    38.030276    -793.7336    1499.8798   -9974.4446   -8474.5648   0.91018703 
   47600    38.102276   -721.76349    1502.7194    -9958.962   -8456.2426   0.91018703 
   47700    38.255735   -807.15301    1508.7717   -9981.1301   -8472.3584   0.91018703 
   47800    38.067204   -696.78647    1501.3362   -9990.9179   -8489.5818   0.91018703 
   47900    37.829014   -755.85463    1491.9422    -9971.927   -8479.9848   0.91018703 
   48000    37.873959   -767.54271    1493.7148   -9997.7466   -8504.0319   0.91018703 
   48100    38.785841   -681.35924    1529.6786   -9977.6249   -8447.9463   0.91018703 
   48200    38.116303   -766.55997    1503.2726   -9964.2206    -8460.948   0.91018703 
   48300    37.890155   -760.82782    1494.3535   -9968.6479   -8474.2944   0.91018703 
   48400    38.188661   -729.06689    1506.1263   -9973.4628   -8467.3365   0.91018703 
   48500     38.02746   -689.16557    1499.7687   -9980.5616   -8480.7929   0.91018703 
   48600    38.491532   -777.97271    1518.0713   -9979.7027   -8461.6314   0.91018703 
   48700     38.04315   -755.44388    1500.3875   -9988.0413   -8487.6538   0.91018703 
   48800    38.225054   -694.45552    1507.5616   -9988.8292   -8481.2676   0.91018703 
   48900    38.632583    -693.2857    1523.6342   -9962.3975   -8438.7633   0.91018703 
   49000    38.251482   -698.45032    1508.6039   -9980.3523   -8471.7483   0.91018703 
   49100    38.715038   -683.45807    1526.8862   -9958.8513   -8431.9651   0.91018703 
   49200     38.10949   -737.98367    1503.0039   -9954.2597   -8451.2558   0.91018703 
   49300    38.273028   -744.33461    1509.4537   -9949.2834   -8439.8297   0.91018703 
   49400    38.867836   -689.08743    1532.9124   -9932.2664    -8399.354   0.91018703 
   49500    38.260028   -705.37931     1508.941    -9933.668    -8424.727   0.91018703 
   49600    38.311853   -719.39034    1510.9849   -9933.3468   -8422.3619   0.91018703 
   49700    38.379848   -856.05686    1513.6666   -9946.2544   -8432.5878   0.91018703 
   49800    38.954287   -785.24814    1536.3219   -9956.8956   -8420.5737   0.91018703 
   49900    38.477452   -744.42364     1517.516   -9940.3091   -8422.7931   0.91018703 
   50000    38.626547    -732.2869    1523.3962   -9954.1607   -8430.7645   0.91018703 
   50100    39.038391    -804.0542    1539.6389   -9938.6079    -8398.969   0.91018703 
   50200    38.893886   -753.48854    1533.9398   -9944.4762   -8410.5364   0.91018703 
   50300    39.322869   -764.93228    1550.8585   -9947.2709   -8396.4125   0.91018703 
   50400    38.906196   -789.11893    1534.4253    -9968.342   -8433.9167   0.91018703 
   50500    38.870401   -758.68136    1533.0135   -9953.8644   -8420.8508   0.91018703 
   50600    39.181022   -733.91559    1545.2642   -9944.6388   -8399.3746   0.91018703 
   50700    39.547839   -729.20485    1559.7311   -9943.5763   -8383.8453   0.91018703 
   50800    39.550223   -749.86183    1559.8251   -9944.6661    -8384.841   0.91018703 
   50900    39.332996   -777.23625    1551.2579   -9924.7841   -8373.5262   0.91018703 
   51000    39.226202   -722.58774     1547.046   -9941.8301   -8394.7841   0.91018703 
   51100    39.243218   -708.41271    1547.7171   -9940.5349   -8392.8178   0.91018703 
   51200    39.208483   -687.86639    1546.3472   -9920.9564   -8374.6092   0.91018703 
   51300    39.335872   -682.22262    1551.3713   -9927.1279   -8375.7566   0.91018703 
   51400    38.797058   -758.31213     1530.121   -9935.3565   -8405.2356   0.91018703 
   51500    39.568102   -731.55495    1560.5303   -9917.8871   -8357.3568   0.91018703 
   51600    39.402249    -671.0492    1553.9892   -9921.0752   -8367.0861   0.91018703 
   51700    40.009645   -691.56016    1577.9443   -9922.6476   -8344.7033   0.91018703 
   51800    39.674539   -703.27027     1564.728   -9947.6352   -8382.9072   0.91018703 
   51900    39.187859   -702.92614    1545.5338   -9917.2983   -8371.7645   0.91018703 
   52000    39.419037   -705.43726    1554.6513   -9904.2938   -8349.6425   0.91018703 
   52100     40.18106   -777.17021    1584.7048   -9932.6104   -8347.9056   0.91018703 
   52200    39.275651   -744.89734    1548.9962   -9925.2331   -8376.2368   0.91018703 
   52300     39.82656   -743.59654    1570.7236   -9917.9577   -8347.2341   0.91018703 
   52400    39.483781   -721.00231    1557.2047   -9927.1355   -8369.9308   0.91018703 
   52500    39.117173   -731.68449     1542.746   -9926.7425   -8383.9965   0.91018703 
   52600    40.139506     -774.608    1583.0659   -9918.4744   -8335.4085   0.91018703 
   52700     40.14973   -658.13362    1583.4691   -9937.1967   -8353.7276   0.91018703 
   52800    40.111299   -699.52021    1581.9535   -9913.0217   -8331.0682   0.91018703 
   52900    39.993828   -712.96417    1577.3205   -9918.3481   -8341.0276   0.91018703 
   53000    39.565327   -756.33283    1560.4208   -9913.6488    -8353.228   0.91018703 
   53100    39.677001   -736.58681    1564.8251   -9940.3496   -8375.5244   0.91018703 
   53200    39.831324   -777.40844    1570.9115   -9917.4753   -8346.5638   0.91018703 
   53300    39.926382   -658.32369    1574.6605   -9892.0076   -8317.3471   0.91018703 
   53400    40.138635   -699.57584    1583.0315   -9871.7573   -8288.7257   0.91018703 
   53500    40.538968   -727.71467    1598.8203   -9903.2166   -8304.3962   0.91018703 
   53600    40.374304    -827.6251    1592.3261     -9898.08   -8305.7539   0.91018703 
   53700    40.079573   -742.31451    1580.7022    -9902.392   -8321.6898   0.91018703 
   53800     40.15358   -772.05832     1583.621   -9883.7832   -8300.1622   0.91018703 
   53900    40.724631    -691.5854    1606.1427   -9886.4871   -8280.3444   0.91018703 
   54000    39.621581   -783.25419    1562.6394   -9898.1904    -8335.551   0.91018703 
   54100    40.158707   -760.45557    1583.8232   -9895.2074   -8311.3842   0.91018703 
   54200    41.229302   -812.42674    1626.0465   -9916.1677   -8290.1212   0.91018703 
   54300    40.957333     -657.652    1615.3203   -9877.0011   -8261.6808   0.91018703 
   54400    41.465857   -746.01672     1635.376   -9882.2933   -8246.9173   0.91018703 
   54500    40.509336   -704.26764    1597.6517   -9909.0209   -8311.3693   0.91018703 
   54600    40.629425   -716.65546    1602.3879   -9933.4068   -8331.0189   0.91018703 
   54700    40.597173   -676.93666    1601.1159   -9902.5963   -8301.4804   0.91018703 
   54800    41.140614   -778.96694    1622.5487   -9918.5763   -8296.0276   0.91018703 
   54900    40.827652   -761.84467    1610.2058   -9888.2076   -8278.0019   0.91018703 
   55000    40.506084   -659.01018    1597.5234   -9881.1794    -8283.656   0.91018703 
   55100    40.502375   -644.42453    1597.3771   -9878.9412   -8281.5641   0.91018703 
   55200    41.155605   -693.17654    1623.1399   -9889.4736   -8266.3337   0.91018703 
   55300    41.078546   -742.51553    1620.1008   -9880.1971   -8260.0963   0.91018703 
   55400    41.101734   -713.05677    1621.0153   -9915.2087   -8294.1934   0.91018703 
   55500    40.978814   -723.29979    1616.1674   -9900.8382   -8284.6708   0.91018703 
   55600    41.074836   -701.36115    1619.9545   -9898.2939   -8278.3395   0.91018703 
   55700    40.539067   -713.85647    1598.8242    -9906.969   -8308.1448   0.91018703 
   55800    41.447125   -806.87116    1634.6372   -9919.4066   -8284.7694   0.91018703 
   55900    41.344154   -777.37963    1630.5761   -9908.1507   -8277.5745   0.91018703 
   56000    40.656825   -786.17826    1603.4685   -9887.8238   -8284.3553   0.91018703 
   56100    41.208321    -660.8081     1625.219    -9879.241    -8254.022   0.91018703 
   56200    41.184774   -777.03168    1624.2903    -9876.158   -8251.8677   0.91018703 
   56300    41.065721    -726.2413     1619.595   -9850.9779   -8231.3829   0.91018703 
   56400    40.985196   -761.37018    1616.4191   -9867.3324   -8250.9132   0.91018703 
   56500    41.744698   -739.36554    1646.3732   -9885.0679   -8238.6946   0.91018703 
   56600    41.678725   -743.07834    1643.7713   -9869.7986   -8226.0273   0.91018703 
   56700    41.101242   -710.56789    1620.9959    -9894.302   -8273.3061   0.91018703 
   56800    41.711588   -670.50216    1645.0674   -9880.4075   -8235.3401   0.91018703 
   56900    41.743745   -605.66686    1646.3356   -9864.4866    -8218.151   0.91018703 
   57000    41.554778   -715.91751     1638.883   -9861.7854   -8222.9024   0.91018703 
   57100    42.421574   -722.87391    1673.0686   -9857.7154   -8184.6468   0.91018703 
   57200    41.848494   -760.55137    1650.4668    -9872.383   -8221.9162   0.91018703 
   57300    41.914345    -698.9644     1653.064   -9837.7583   -8184.6943   0.91018703 
   57400    41.841209   -728.87762    1650.1795     -9861.87   -8211.6904   0.91018703 
   57500    41.522264   -747.34746    1637.6006   -9855.6626    -8218.062   0.91018703 
   57600    41.931918   -732.75785     1653.757    -9847.973    -8194.216   0.91018703 
   57700    41.692012   -592.30859    1644.2953   -9847.8381   -8203.5427   0.91018703 
   57800     42.47269   -690.40555    1675.0846   -9842.4603   -8167.3757   0.91018703 
   57900    41.982942   -638.76277    1655.7694   -9879.6469   -8223.8776   0.91018703 
   58000    41.544152   -707.57731    1638.4639   -9852.8757   -8214.4118   0.91018703 
   58100    41.977962    -668.5739    1655.5729    -9866.181   -8210.6081   0.91018703 
   58200    42.165997   -654.42004    1662.9889   -9841.0744   -8178.0856   0.91018703 
   58300    42.685761   -694.02512    1683.4879    -9829.068   -8145.5801   0.91018703 
   58400    42.163749    -654.9646    1662.9002   -9846.9312    -8184.031   0.91018703 
   58500    42.771716   -794.44853    1686.8779   -9843.7516   -8156.8737   0.91018703 
   58600    42.300272   -803.50825    1668.2846   -9834.6537   -8166.3692   0.91018703 
   58700    42.217283   -703.13067    1665.0116   -9872.0423   -8207.0308   0.91018703 
   58800    42.255498   -666.00459    1666.5187   -9855.2187   -8188.6999   0.91018703 
   58900    41.902524   -744.91519    1652.5977   -9817.1277     -8164.53   0.91018703 
   59000    42.736388    -733.1975    1685.4846   -9861.1774   -8175.6928   0.91018703 
   59100    43.162938   -695.65503    1702.3073   -9821.4793   -8119.1719   0.91018703 
   59200    42.683948   -682.38271    1683.4164   -9841.8177   -8158.4013   0.91018703 
   59300    42.330334   -693.77663    1669.4702   -9848.9497   -8179.4795   0.91018703 
   59400    43.176171   -630.48523    1702.8292   -9830.6935   -8127.8643   0.91018703 
   59500    42.144569   -674.04937    1662.1438   -9843.8482   -8181.7044   0.91018703 
   59600    42.631976   -603.54777    1681.3667   -9846.8994   -8165.5327   0.91018703 
   59700    41.986314   -623.09087    1655.9023   -9821.5141   -8165.6118   0.91018703 
   59800     42.62437   -734.49796    1681.0667   -9829.0499   -8147.9832   0.91018703 
   59900     43.01795     -733.088    1696.5891     -9809.44   -8112.8509   0.91018703 
   60000    42.125734   -690.89923    1661.4009   -9816.0371   -8154.6362   0.91018703 
   60100    42.581087   -686.78937    1679.3597   -9840.0466   -8160.6869   0.91018703 
   60200    42.290213   -600.05446    1667.8878   -9857.5759   -8189.6881   0.91018703 
   60300    42.224033   -690.28185    1665.2778   -9868.2961   -8203.0183   0.91018703 
   60400    42.186388   -675.62385    1663.7931   -9818.2827   -8154.4896   0.91018703 
   60500    42.248338   -581.79156    1666.2363   -9824.8046   -8158.5683   0.91018703 
   60600    42.582655   -723.50571    1679.4215   -9827.5296    -8148.108   0.91018703 
   60700    42.697068   -635.46624    1683.9338   -9824.8922   -8140.9583   0.91018703 
   60800    43.231729   -607.99815    1705.0204   -9834.5682   -8129.5478   0.91018703 
   60900    42.340003   -737.99014    1669.8515   -9807.5099   -8137.6584   0.91018703 
   61000    42.820334    -717.7991    1688.7953   -9792.1271   -8103.3317   0.91018703 
   61100    43.114528   -664.67668    1700.3981   -9821.2684   -8120.8703   0.91018703 
   61200    43.090351   -690.66172    1699.4446   -9815.6826   -8116.2381   0.91018703 
   61300    42.779835   -721.56775    1687.1981   -9796.3467   -8109.1486   0.91018703 
   61400    43.009451   -731.80121    1696.2539   -9807.7741   -8111.5202   0.91018703 
   61500    44.154105   -680.83943    1741.3981   -9811.7942   -8070.3961   0.91018703 
   61600    43.368998   -638.81147    1710.4341   -9780.0023   -8069.5681   0.91018703 
   61700    43.527024    -688.3776    1716.6665    -9827.359   -8110.6925   0.91018703 
   61800    43.162593    -755.5122    1702.2937   -9803.9216   -8101.6279   0.91018703 
   61900    43.595105   -689.94271    1719.3516   -9816.5143   -8097.1626   0.91018703 
   62000    44.182829   -681.41743    1742.5309   -9800.3273   -8057.7964   0.91018703 
   62100    42.861296   -691.83687    1690.4108   -9816.8668   -8126.4559   0.91018703 
   62200    43.909159   -613.46808    1731.7376   -9827.6453   -8095.9077   0.91018703 
   62300     44.08223   -642.92965    1738.5634   -9803.0995   -8064.5361   0.91018703 
   62400    43.771316   -593.11555    1726.3012   -9808.1665   -8081.8653   0.91018703 
   62500    44.409866   -556.44661     1751.485   -9781.8783   -8030.3932   0.91018703 
   62600    43.633979   -611.73598    1720.8848   -9795.3055   -8074.4208   0.91018703 
   62700    44.111367    -612.7263    1739.7125   -9798.5627   -8058.8501   0.91018703 
   62800    43.176307   -686.06529    1702.8346   -9787.2316    -8084.397   0.91018703 
   62900    43.850528   -655.63473    1729.4252    -9778.866   -8049.4407   0.91018703 
   63000    43.520384   -628.68222    1716.4047   -9787.4606   -8071.0559   0.91018703 
   63100    43.704294   -725.71191    1723.6579   -9804.1146   -8080.4567   0.91018703 
   63200    44.136021   -753.12687    1740.6848   -9787.2992   -8046.6144   0.91018703 
   63300    44.434499   -637.35269    1752.4565   -9809.8634   -8057.4069   0.91018703 
   63400    44.419545   -674.55829    1751.8668   -9809.7446   -8057.8778   0.91018703 
   63500    44.326236   -688.59728    1748.1868   -9771.9365   -8023.7498   0.91018703 
   63600    44.483914   -693.52093    1754.4054   -9782.1524    -8027.747   0.91018703 
   63700    44.064411   -679.73904    1737.8606   -9776.8068   -8038.9462   0.91018703 
   63800    43.705066   -675.12653    1723.6884   -9786.2361   -8062.5477   0.91018703 
   63900    43.978997    -560.9823     1734.492   -9768.4937   -8034.0017   0.91018703 
   64000    43.610768   -659.37739    1719.9693   -9753.0515   -8033.0822   0.91018703 
   64100     44.12449   -658.75089    1740.2301   -9777.9098   -8037.6797   0.91018703 
   64200    44.302951   -707.22448    1747.2684   -9796.5911   -8049.3227   0.91018703 
   64300    44.598673   -743.87918    1758.9314   -9783.4196   -8024.4881   0.91018703 
   64400    44.818102   -698.94891    1767.5855   -9797.9999   -8030.4144   0.91018703 
   64500    44.415745   -636.22608    1751.7169   -9772.5147   -8020.7978   0.91018703 
   64600    44.218262   -636.99134    1743.9284   -9775.3442   -8031.4159   0.91018703 
   64700    45.033697   -654.89591    1776.0884   -9785.8218   -8009.7335   0.91018703 
   64800    44.119907   -687.19928    1740.0493   -9787.0344   -8046.9851   0.91018703 
   64900    44.671026   -623.89327     1761.785   -9773.6054   -8011.8205   0.91018703 
   65000    43.988606   -631.80101    1734.8709   -9779.5805   -8044.7096   0.91018703 
   65100    44.454147   -599.74575    1753.2314   -9781.3853   -8028.1539   0.91018703 
   65200      45.3875   -714.57507    1790.0421   -9754.0013   -7963.9593   0.91018703 
   65300    45.035509    -668.0433    1776.1598   -9779.3049    -8003.145   0.91018703 
   65400    44.477697   -743.14821    1754.1602   -9765.2354   -8011.0752   0.91018703 
   65500    44.704487   -711.46545    1763.1046   -9760.9027    -7997.798   0.91018703 
   65600    44.329095   -752.84534    1748.2995   -9744.7212   -7996.4217   0.91018703 
   65700    45.051475   -731.23769    1776.7895   -9773.3935   -7996.6039   0.91018703 
   65800    45.081194   -746.13199    1777.9616   -9760.7679   -7982.8063   0.91018703 
   65900    44.796176   -666.80941    1766.7208    -9767.476   -8000.7552   0.91018703 
   66000    45.290801   -764.88157    1786.2283   -9762.6771   -7976.4488   0.91018703 
   66100    44.710359   -729.45146    1763.3362   -9745.9512    -7982.615   0.91018703 
   66200    45.232152   -622.16233    1783.9153   -9730.7293   -7946.8141   0.91018703 
   66300     44.74634   -616.06831    1764.7553   -9765.7742   -8001.0189   0.91018703 
   66400    44.144352     -682.013    1741.0134   -9754.7555   -8013.7421   0.91018703 
   66500    45.505339   -658.59839    1794.6895   -9777.7829   -7983.0934   0.91018703 
   66600    45.049545   -676.07355    1776.7134   -9722.9262   -7946.2128   0.91018703 
   66700    45.113578   -733.14985    1779.2388   -9772.2933   -7993.0545   0.91018703 
   66800     45.21283   -674.20608    1783.1532    -9760.579   -7977.4258   0.91018703 
   66900    44.954745   -710.30544    1772.9746   -9742.8386    -7969.864   0.91018703 
   67000    45.094091   -592.60664    1778.4703   -9750.6402     -7972.17   0.91018703 
   67100    44.996085   -669.55618     1774.605    -9730.649    -7956.044   0.91018703 
   67200    45.245506   -622.62566    1784.4419   -9743.7579    -7959.316   0.91018703 
   67300    45.568105   -680.26749    1797.1649   -9755.3661   -7958.2012   0.91018703 
   67400    45.838368   -605.00804    1807.8239      -9747.6   -7939.7761   0.91018703 
   67500    45.788559    -633.1524    1805.8595   -9743.2673   -7937.4078   0.91018703 
   67600    44.602758   -660.89319    1759.0925   -9710.6223   -7951.5298   0.91018703 
   67700    45.554921   -743.53759     1796.645   -9762.0824   -7965.4374   0.91018703 
   67800     44.95247    -646.2891    1772.8849   -9775.5495   -8002.6647   0.91018703 
   67900     44.73776   -680.37712    1764.4169   -9745.5506   -7981.1338   0.91018703 
   68000    45.737334   -593.15321    1803.8392   -9760.4538   -7956.6146   0.91018703 
   68100    45.716542   -692.94505    1803.0192   -9741.5303   -7938.5111   0.91018703 
   68200    45.003038   -723.86352    1774.8792   -9716.0472    -7941.168   0.91018703 
   68300     46.10415   -611.85796    1818.3061   -9719.8897   -7901.5836   0.91018703 
   68400    45.642237   -745.98806    1800.0886    -9743.296   -7943.2074   0.91018703 
   68500    45.912352   -688.26552    1810.7417   -9734.7721   -7924.0304   0.91018703 
   68600    46.373754   -702.70629     1828.939   -9750.2688   -7921.3297   0.91018703 
   68700     45.54441   -762.88856    1796.2304   -9722.5581   -7926.3277   0.91018703 
   68800    45.617848   -649.63912    1799.1268   -9704.8392   -7905.7125   0.91018703 
   68900    45.180913   -649.88767    1781.8945   -9692.9786   -7911.0842   0.91018703 
   69000    45.517792   -700.80743    1795.1806   -9707.3145   -7912.1339   0.91018703 
   69100     46.07494   -673.30998    1817.1541   -9709.5696   -7892.4155   0.91018703 
   69200    45.998351   -696.52147    1814.1335   -9712.6016   -7898.4681   0.91018703 
   69300     46.36897   -717.50102    1828.7503   -9689.9467   -7861.1964   0.91018703 
   69400    46.431504   -715.11602    1831.2166    -9680.029   -7848.8124   0.91018703 
   69500    46.212035   -639.30109     1822.561   -9697.7983   -7875.2373   0.91018703 
   69600    46.732695   -628.02611    1843.0953   -9721.6206   -7878.5252   0.91018703 
   69700     46.60604   -751.48928    1838.1002   -9706.2861   -7868.1859   0.91018703 
   69800     46.78816   -790.09313    1845.2828   -9702.5919   -7857.3091   0.91018703 
   69900    46.734324   -707.48798    1843.1596   -9696.7803   -7853.6207   0.91018703 
   70000    46.564366    -656.0655    1836.4566   -9710.1402   -7873.6836   0.91018703 
   70100    46.022422    -640.5004    1815.0828   -9706.8815   -7891.7987   0.91018703 
   70200    46.276887   -698.39621    1825.1187   -9737.0673   -7911.9486   0.91018703 
   70300    46.628259    -678.0505    1838.9765   -9709.4758   -7870.4993   0.91018703 
   70400    46.437513   -594.97242    1831.4536   -9736.1928   -7904.7392   0.91018703 
   70500    46.514299   -593.85062     1834.482   -9688.5278   -7854.0458   0.91018703 
   70600    46.495635   -614.40591    1833.7459    -9727.298   -7893.5521   0.91018703 
   70700    46.519877    -688.0347     1834.702   -9706.7371   -7872.0352   0.91018703 
   70800     46.46845   -635.87014    1832.6737   -9708.5107   -7875.8369   0.91018703 
   70900    46.689825   -696.51184    1841.4046   -9726.0208   -7884.6163   0.91018703 
   71000    47.060642   -616.13951    1856.0293   -9721.3616   -7865.3323   0.91018703 
   71100    47.184696   -648.29886    1860.9218   -9703.8399   -7842.9181   0.91018703 
   71200    46.338709   -652.77459    1827.5569   -9693.0727   -7865.5158   0.91018703 
   71300     46.61702   -581.92633    1838.5332   -9706.6929   -7868.1597   0.91018703 
   71400    46.335795   -601.76717     1827.442   -9727.0272   -7899.5852   0.91018703 
   71500    46.815714   -638.32184    1846.3695    -9678.257   -7831.8875   0.91018703 
   71600    46.865446   -635.91764    1848.3309   -9716.9298   -7868.5989   0.91018703 
   71700    47.073776   -631.92006    1856.5473   -9715.9564   -7859.4091   0.91018703 
   71800    47.122079   -658.77349    1858.4523   -9713.0651   -7854.6128   0.91018703 
   71900    46.974914   -611.93107    1852.6482   -9685.3111   -7832.6628   0.91018703 
   72000     47.12288    -630.9286    1858.4839   -9702.2043   -7843.7204   0.91018703 
   72100    47.937278   -549.11967     1890.603   -9704.6293   -7814.0263   0.91018703 
   72200    46.715383   -623.20142    1842.4126   -9685.8148   -7843.4022   0.91018703 
   72300    46.844211   -628.50744    1847.4934   -9681.3796   -7833.8862   0.91018703 
   72400    47.460624    -599.3319    1871.8042   -9665.5813   -7793.7771   0.91018703 
   72500    47.092831   -641.72533    1857.2988   -9649.7895   -7792.4908   0.91018703 
   72600    46.628487   -612.34157    1838.9855   -9673.2785    -7834.293   0.91018703 
   72700    47.442964   -671.97142    1871.1077    -9689.225   -7818.1173   0.91018703 
   72800    47.609508   -659.55159     1877.676   -9666.4936   -7788.8176   0.91018703 
   72900    48.558071   -571.80271    1915.0865   -9658.2972   -7743.2107   0.91018703 
   73000    47.616107   -651.58165    1877.9363   -9670.1844   -7792.2481   0.91018703 
   73100    47.965014   -608.65458    1891.6969   -9650.4741   -7758.7772   0.91018703 
   73200    46.932508   -584.08091    1850.9758   -9677.8776   -7826.9018   0.91018703 
   73300    47.642211   -666.10946    1878.9658   -9688.5209   -7809.5551   0.91018703 
   73400    47.850796    -627.2026    1887.1922   -9647.6399   -7760.4477   0.91018703 
   73500    47.749721   -612.00191    1883.2059   -9678.9497   -7795.7438   0.91018703 
   73600    47.902908   -557.79048    1889.2475   -9669.0529   -7779.8054   0.91018703 
   73700    47.706746   -632.24527     1881.511   -9667.5117   -7786.0007   0.91018703 
   73800    47.018114   -642.19088     1854.352   -9673.8565   -7819.5045   0.91018703 
   73900    47.500852   -684.87181    1873.3908   -9678.0003   -7804.6095   0.91018703 
   74000     47.90011   -665.40935    1889.1371   -9657.3872     -7768.25   0.91018703 
   74100    47.464452    -532.2456    1871.9552    -9651.479   -7779.5239   0.91018703 
   74200    47.729501   -566.84803    1882.4085   -9635.2914   -7752.8829   0.91018703 
   74300    48.155965   -687.25192    1899.2278   -9668.8138    -7769.586   0.91018703 
   74400    47.686877   -679.12187    1880.7274   -9652.5764    -7771.849   0.91018703 
   74500    48.628968   -649.17792    1917.8826   -9640.4204   -7722.5378   0.91018703 
   74600    48.127473   -658.18439    1898.1041   -9656.5785   -7758.4744   0.91018703 
   74700    48.040183   -693.26777    1894.6615   -9668.0928   -7773.4313   0.91018703 
   74800    47.853142   -627.00986    1887.2848   -9655.6596   -7768.3748   0.91018703 
   74900    47.699232   -627.99798    1881.2147   -9671.7052   -7790.4906   0.91018703 
   75000    48.116743   -492.35287    1897.6809   -9655.8338   -7758.1528   0.91018703 
   75100    48.263643    -638.6833    1903.4745   -9626.8776    -7723.403   0.91018703 
   75200    48.825015   -617.32937    1925.6145   -9657.0115    -7731.397   0.91018703 
   75300    47.787129   -679.51319    1884.6813   -9667.5066   -7782.8254   0.91018703 
   75400    48.415547   -611.18358    1909.4655   -9650.2451   -7740.7796   0.91018703 
   75500    48.204878   -536.56431    1901.1569   -9638.7894   -7737.6325   0.91018703 
   75600    48.845326   -571.22747    1926.4156     -9660.53   -7734.1144   0.91018703 
   75700    47.670574   -635.52025    1880.0844   -9679.1675   -7799.0831   0.91018703 
   75800    47.698182   -683.57973    1881.1733   -9633.7755   -7752.6022   0.91018703 
   75900    48.566383   -602.47169    1915.4143   -9636.9619   -7721.5476   0.91018703 
   76000    48.023983    -655.5559    1894.0226   -9621.0233   -7727.0007   0.91018703 
   76100    48.243906   -692.87474    1902.6961   -9653.8538   -7751.1577   0.91018703 
   76200    48.955605   -608.63001    1930.7649   -9645.5206   -7714.7558   0.91018703 
   76300    48.460415   -695.75327     1911.235   -9627.9008   -7716.6657   0.91018703 
   76400    48.457675    -626.8272     1911.127   -9640.9315   -7729.8045   0.91018703 
   76500    48.913743   -660.11378    1929.1139   -9623.0763   -7693.9624   0.91018703 
   76600    48.827299   -643.06105    1925.7046    -9646.748   -7721.0433   0.91018703 
   76700    49.346647   -668.51596    1946.1872   -9649.8229   -7703.6357   0.91018703 
   76800    49.000809   -655.98813    1932.5477   -9602.0631   -7669.5155   0.91018703 
   76900    49.211295   -611.82287    1940.8491   -9618.9578   -7678.1087   0.91018703 
   77000    48.787618   -687.87004    1924.1396   -9633.7157   -7709.5761   0.91018703 
   77100    48.841869   -651.57086    1926.2792   -9633.7458   -7707.4666   0.91018703 
   77200    49.287979   -614.35027    1943.8734   -9632.3804    -7688.507   0.91018703 
   77300    49.361381   -594.63982    1946.7683   -9617.1079   -7670.3395   0.91018703 
   77400    48.275795    -692.6984    1903.9538   -9607.5567   -7703.6029   0.91018703 
   77500    49.531412   -586.36367    1953.4742   -9610.5127   -7657.0385   0.91018703 
   77600    48.976473   -548.04354    1931.5879   -9622.8861   -7691.2982   0.91018703 
   77700    48.731628   -621.44142    1921.9315   -9609.6546   -7687.7231   0.91018703 
   77800    48.832206   -578.14663    1925.8982   -9644.4949   -7718.5968   0.91018703 
   77900    49.197175   -704.09289    1940.2922   -9608.0667   -7667.7745   0.91018703 
   78000     49.26457   -602.54151    1942.9502   -9636.1082    -7693.158   0.91018703 
   78100    49.677802   -626.76108    1959.2477    -9600.857   -7641.6093   0.91018703 
   78200    49.041821   -578.81569    1934.1652   -9596.4032    -7662.238   0.91018703 
   78300    48.724504   -562.00409    1921.6505   -9631.5484   -7709.8979   0.91018703 
   78400    49.085958   -550.68086    1935.9059   -9617.7389    -7681.833   0.91018703 
   78500    49.316378   -639.38359    1944.9935    -9620.826   -7675.8325   0.91018703 
   78600    49.051608   -546.78013    1934.5512   -9604.7832   -7670.2321   0.91018703 
   78700    49.118889   -496.88974    1937.2047   -9601.0239   -7663.8192   0.91018703 
   78800    49.941344   -632.30429    1969.6416    -9591.716   -7622.0744   0.91018703 
   78900    49.534498   -575.17047    1953.5959   -9618.9905   -7665.3946   0.91018703 
   79000    49.341327   -577.77851    1945.9774   -9617.7137   -7671.7363   0.91018703 
   79100      50.2094   -487.04021    1980.2134   -9587.6441   -7607.4307   0.91018703 
   79200    49.853634   -627.64865    1966.1823    -9600.923   -7634.7406   0.91018703 
   79300    50.283807   -596.70769     1983.148   -9601.4974   -7618.3494   0.91018703 
   79400    49.981808   -646.22574    1971.2374   -9569.7096   -7598.4721   0.91018703 
   79500    49.430077   -560.18773    1949.4776   -9581.4542   -7631.9766   0.91018703 
   79600    49.487716   -606.93341    1951.7509   -9614.0775   -7662.3267   0.91018703 
   79700    50.207059   -690.62523    1980.1211    -9588.208    -7608.087   0.91018703 
   79800    49.578025   -566.24217    1955.3126    -9610.147   -7654.8345   0.91018703 
   79900    50.299944   -627.73567    1983.7844   -9609.1994    -7625.415   0.91018703 
   80000    49.845937   -615.23591    1965.8788   -9577.0282   -7611.1494   0.91018703 
   80100    49.667577    -653.2504    1958.8444   -9606.0374    -7647.193   0.91018703 
   80200    48.864721   -621.22043    1927.1805   -9584.2427   -7657.0622   0.91018703 
   80300    50.068533   -649.30938    1974.6578   -9635.1863   -7660.5286   0.91018703 
   80400    49.839773   -659.57493    1965.6357   -9563.7554   -7598.1197   0.91018703 
   80500    50.270793   -585.30432    1982.6347   -9572.0839   -7589.4492   0.91018703 
   80600     48.77724   -596.26385    1923.7303   -9602.8558   -7679.1255   0.91018703 
   80700    50.094253   -567.82931    1975.6722   -9582.0212   -7606.3491   0.91018703 
   80800    50.013241   -618.92128    1972.4771   -9573.7252   -7601.2481   0.91018703 
   80900    50.614444   -589.27119     1996.188   -9585.1708   -7588.9828   0.91018703 
   81000    49.888959   -597.71281    1967.5755   -9570.6452   -7603.0696   0.91018703 
   81100    50.218815   -590.34638    1980.5848   -9551.2552   -7570.6705   0.91018703 
   81200    50.767308   -723.85915    2002.2168   -9581.6348   -7579.4179   0.91018703 
   81300     48.96797   -602.35882    1931.2526   -9584.8676    -7653.615   0.91018703 
   81400    49.630347   -617.40529    1957.3761   -9571.5089   -7614.1328   0.91018703 
   81500    50.629761   -577.40865    1996.7921   -9578.4254   -7581.6334   0.91018703 
   81600    50.690126   -605.27819    1999.1728   -9575.0318    -7575.859   0.91018703 
   81700    51.090817   -596.90785    2014.9757   -9585.3721   -7570.3963   0.91018703 
   81800    50.485173   -566.54686    1991.0897   -9581.0834   -7589.9937   0.91018703 
   81900     50.17162   -616.04587    1978.7234   -9564.2509   -7585.5275   0.91018703 
   82000    50.720358   -642.72649    2000.3651   -9563.4628   -7563.0977   0.91018703 
   82100    50.450465   -641.99858    1989.7208   -9594.3245   -7604.6037   0.91018703 
   82200    50.542159   -583.95285    1993.3372   -9571.0819   -7577.7448   0.91018703 
   82300    50.140764   -530.84173    1977.5065   -9569.7436   -7592.2371   0.91018703 
   82400    50.926848   -575.47368    2008.5089   -9593.7813   -7585.2724   0.91018703 
   82500    49.594608   -649.89411    1955.9666   -9567.5344   -7611.5678   0.91018703 
   82600    50.391918   -597.40748    1987.4118    -9589.024   -7601.6122   0.91018703 
   82700    51.001619   -563.12863    2011.4579   -9536.5102   -7525.0524   0.91018703 
   82800    50.348571   -577.09567    1985.7022   -9540.8419   -7555.1397   0.91018703 
   82900    51.162532   -562.18323    2017.8041   -9556.5133   -7538.7092   0.91018703 
   83000    50.988866   -562.71664    2010.9549   -9550.3148     -7539.36   0.91018703 
   83100    51.464375   -554.68224    2029.7085   -9558.8533   -7529.1448   0.91018703 
   83200    50.000408   -563.74608     1971.971   -9557.6153   -7585.6443   0.91018703 
   83300    51.120945   -602.78132     2016.164   -9539.5488   -7523.3848   0.91018703 
   83400    50.210762   -545.41523    1980.2672   -9555.4069   -7575.1397   0.91018703 
   83500    50.996892   -649.71485    2011.2714   -9537.3646   -7526.0932   0.91018703 
   83600    51.031329   -608.62814    2012.6296   -9529.4684   -7516.8388   0.91018703 
   83700     51.12965   -596.88814    2016.5073   -9520.9385   -7504.4313   0.91018703 
   83800    51.185352   -508.38372    2018.7041   -9592.9369   -7574.2328   0.91018703 
   83900    50.390232   -659.46668    1987.3453   -9590.2032   -7602.8579   0.91018703 
   84000    51.638954   -555.22909    2036.5937   -9568.4269   -7531.8332   0.91018703 
   84100    51.307404   -602.39421    2023.5177   -9512.7475   -7489.2297   0.91018703 
   84200    51.981274   -647.58439    2050.0945   -9556.6756    -7506.581   0.91018703 
   84300    51.508368   -521.88795    2031.4435   -9508.4636   -7477.0201   0.91018703 
   84400    50.794215   -614.08435     2003.278   -9540.1156   -7536.8376   0.91018703 
   84500    52.108579   -632.23902    2055.1153   -9557.7369   -7502.6216   0.91018703 
   84600    52.001521   -611.42867    2050.8931     -9531.13    -7480.237   0.91018703 
   84700     51.54495   -495.14893    2032.8863   -9533.6291   -7500.7428   0.91018703 
   84800    51.539193   -551.73873    2032.6593   -9542.7535   -7510.0942   0.91018703 
   84900    51.358333   -556.42158    2025.5263   -9531.6324    -7506.106   0.91018703 
   85000    51.493585   -569.78358    2030.8605   -9521.3817   -7490.5211   0.91018703 
   85100    51.159267   -701.70201    2017.6753   -9530.8864   -7513.2111   0.91018703 
   85200    51.930231   -649.51235    2048.0815   -9535.6207   -7487.5392   0.91018703 
   85300    52.290366   -571.22836    2062.2849   -9487.8402   -7425.5554   0.91018703 
   85400    51.709453    -614.4555    2039.3742    -9493.906   -7454.5319   0.91018703 
   85500    51.183808   -618.01441    2018.6432   -9510.5856   -7491.9424   0.91018703 
   85600     51.22949   -557.79386    2020.4449   -9510.2145   -7489.7696   0.91018703 
   85700     51.41977    -529.0199    2027.9493   -9520.7455   -7492.7961   0.91018703 
   85800    52.381491   -572.60456    2065.8788   -9528.3116   -7462.4329   0.91018703 
   85900    52.114388     -593.196    2055.3444   -9544.2839   -7488.9394   0.91018703 
[...]
  179300    347.06526   -317.70983    13687.941    3364.7238    17052.665   0.91018703 
  179400    347.10426   -301.32999    13689.479    3437.3114     17126.79   0.91018703 
  179500    347.64408   -161.13591    13710.769       3598.3    17309.069   0.91018703 
  179600    349.19797   -235.81499    13772.053    3500.6135    17272.667   0.91018703 
  179700    346.86028   -325.04013    13679.857    3670.9158    17350.772   0.91018703 
  179800     348.4087   -377.35759    13740.925    3541.6675    17282.592   0.91018703 
  179900    346.94496   -223.51194    13683.196    3545.2956    17228.492   0.91018703 
  180000    343.49204   -320.02345    13547.016    3411.0303    16958.046   0.91018703 
  180100    345.09152   -322.27676    13610.098    3718.7246    17328.823   0.91018703 
  180200     341.9295   -202.05297    13485.391    3640.3033    17125.694   0.91018703 
  180300    347.56319   -129.42787    13707.578    3456.5548    17164.133   0.91018703 
  180400    347.20147   -439.40257    13693.313    3496.5454    17189.858   0.91018703 
  180500      345.174   -357.46193    13613.351    3450.5504    17063.901   0.91018703 
  180600    348.85173   -337.88765    13758.397    3575.3638    17333.761   0.91018703 
  180700    344.25667   -420.39022    13577.172    3637.0928    17214.265   0.91018703 
  180800    347.07285   -391.66634     13688.24    3642.4579    17330.698   0.91018703 
  180900       347.68   -303.24522    13712.185    3560.1058    17272.291   0.91018703 
  181000    342.62762   -236.36454    13512.924    3584.2709    17097.195   0.91018703 
  181100    340.41752   -190.51545     13425.76    3641.8778    17067.637   0.91018703 
  181200    350.82472   -305.58735     13836.21    3526.3664    17362.577   0.91018703 
  181300    347.47871   -230.98767    13704.247    3607.4123    17311.659   0.91018703 
  181400    342.71573   -119.84452    13516.399    3479.8626    16996.262   0.91018703 
  181500    347.81725   -317.78538    13717.599     3496.658    17214.257   0.91018703 
  181600    347.52854   -116.13818    13706.212    3500.7853    17206.997   0.91018703 
  181700    349.11605   -203.27192    13768.822    3533.7345    17302.556   0.91018703 
  181800    349.67105   -300.25737    13790.711    3587.0466    17377.757   0.91018703 
  181900     345.1116   -225.81176     13610.89    3663.4341    17274.324   0.91018703 
  182000    344.11426   -373.26059    13571.556    3541.6332    17113.189   0.91018703 
  182100    345.27621   -425.81682    13617.382    3589.8666    17207.249   0.91018703 
  182200    343.64806   -47.057207    13553.169    3598.9794    17152.149   0.91018703 
  182300    347.57727   -276.27763    13708.134    3461.3252    17169.459   0.91018703 
  182400    347.68422   -302.37304    13712.352    3599.5075    17311.859   0.91018703 
  182500    348.95019   -151.95974    13762.281    3771.0204    17533.301   0.91018703 
  182600    350.18955   -298.28612     13811.16    3621.1915    17432.351   0.91018703 
  182700    349.94717   -194.80006    13801.601    3730.4897     17532.09   0.91018703 
  182800    349.91021   -253.91633    13800.143    3813.1716    17613.315   0.91018703 
  182900    350.44131   -220.46639    13821.089    3720.5495    17541.639   0.91018703 
  183000    349.94472   -307.31905    13801.504    3710.1253    17511.629   0.91018703 
  183100    348.94199   -319.55218    13761.957     3727.177    17489.134   0.91018703 
  183200    350.89423    -89.29465    13838.952    3605.1856    17444.137   0.91018703 
  183300    352.34523   -26.109738    13896.178    3674.0303    17570.208   0.91018703 
  183400    348.33272   -179.12887    13737.928    3611.2173    17349.145   0.91018703 
  183500    348.73955    -273.4037    13753.973    3642.9712    17396.944   0.91018703 
  183600    353.79224   -261.07962    13953.247    3779.2135     17732.46   0.91018703 
  183700    352.67284   -431.12612    13909.099    3814.4843    17723.583   0.91018703 
  183800     351.3631   -199.49428    13857.444    3490.2355    17347.679   0.91018703 
  183900    350.30774   -354.44711    13815.821    3457.6969    17273.518   0.91018703 
  184000    346.25096   -363.27557    13655.826    3598.8301    17254.656   0.91018703 
  184100    344.75081   -341.31315    13596.661    3821.9214    17418.582   0.91018703 
  184200    346.41415   -353.43046    13662.262    3593.3997    17255.661   0.91018703 
  184300    348.69358   -443.84821     13752.16    3598.7911    17350.951   0.91018703 
  184400    345.64498   -265.19965    13631.926    3969.3164    17601.242   0.91018703 
  184500    351.46836   -272.63658    13861.595    3630.3965    17491.991   0.91018703 
  184600     348.9967   -554.33289    13764.115     3715.809    17479.924   0.91018703 
  184700    348.14316    -486.9815    13730.452    3928.0949    17658.547   0.91018703 
  184800    351.14175   -210.10405    13848.714    3740.4501    17589.164   0.91018703 
  184900    350.28218    -129.3336    13814.813    3837.6518    17652.465   0.91018703 
  185000    350.91994   -468.52332    13839.966    3808.4704    17648.436   0.91018703 
  185100    354.72298   -261.74226    13989.954    3726.3557     17716.31   0.91018703 
  185200    348.21138   -385.75514    13733.143    3887.5986    17620.741   0.91018703 
  185300    347.49326   -317.32459    13704.821    3580.0655    17284.886   0.91018703 
  185400    348.83192   -206.05362    13757.616    3718.5034    17476.119   0.91018703 
  185500    352.14769   -77.676554    13888.387    3649.6994    17538.086   0.91018703 
  185600    350.22383   -322.86762    13812.512    3609.4416    17421.953   0.91018703 
  185700    349.68832   -244.88583    13791.392     3676.599    17467.991   0.91018703 
  185800    346.57346   -272.42001    13668.545    3810.8681    17479.413   0.91018703 
  185900    353.84163   -357.02543    13955.195    3742.5921    17697.787   0.91018703 
  186000     350.6461   -122.37017    13829.166    3716.9709    17546.137   0.91018703 
  186100    353.43018   -334.15668    13938.967    3733.5742    17672.541   0.91018703 
  186200    354.52592   -385.25138    13982.182    3901.5547    17883.737   0.91018703 
  186300    355.87415   -266.98179    14035.355    3694.6965    17730.052   0.91018703 
  186400    346.36241   -243.48728    13660.221    3871.4385    17531.659   0.91018703 
  186500    348.04662   -136.33477    13726.645    3762.9559    17489.601   0.91018703 
  186600    350.57882   -286.24772    13826.512    3676.8704    17503.383   0.91018703 
  186700    347.97676   -224.74756    13723.889    3913.9023    17637.792   0.91018703 
  186800    357.08212   -238.52842    14082.997     3802.131    17885.128   0.91018703 
  186900    350.90739   -245.26467    13839.471     3982.911    17822.382   0.91018703 
  187000    348.89964   -420.29276    13760.287    4004.1302    17764.417   0.91018703 
  187100    351.54997   -206.46437    13864.814    4003.4066     17868.22   0.91018703 
  187200    355.05961    -274.5281    14003.231    3912.0211    17915.252   0.91018703 
  187300    353.87787   -202.84243    13956.624    3871.4794    17828.103   0.91018703 
  187400    352.48599   -106.32678    13901.729    3818.3868    17720.116   0.91018703 
  187500    353.38383   -338.24018    13937.139    3859.1754    17796.315   0.91018703 
  187600    351.02009   -328.50396    13843.916    3881.8334    17725.749   0.91018703 
  187700    349.64849    -76.85521    13789.821    3791.9959    17581.817   0.91018703 
  187800    352.47102    87.444898    13901.139    3753.6362    17654.775   0.91018703 
  187900    353.59206    -208.2349    13945.352    3766.6725    17712.025   0.91018703 
  188000    352.93363   -181.88401    13919.384    3995.6105    17914.994   0.91018703 
  188100    355.52212   -132.00879    14021.472    3968.1609    17989.632   0.91018703 
  188200    354.37098   -114.30369    13976.072    3796.5107    17772.582   0.91018703 
  188300    346.54989   -231.65158    13667.615    3912.6948     17580.31   0.91018703 
  188400    351.57246   -388.28272    13865.701    3774.2392     17639.94   0.91018703 
  188500    352.68754   -401.01101    13909.678    3684.3887    17594.067   0.91018703 
  188600     353.9546   -399.03655     13959.65    3900.5389    17860.189   0.91018703 
  188700    352.20288   -487.62526    13890.564    3864.7898    17755.353   0.91018703 
  188800    356.02959   -330.83339    14041.486    3732.7845    17774.271   0.91018703 
  188900    349.86372   -216.18623    13798.309    3955.3816    17753.691   0.91018703 
  189000    354.91093   -156.32669    13997.367    3778.6523    17776.019   0.91018703 
  189100    353.29126   -226.13763    13933.489    3914.3048    17847.793   0.91018703 
  189200    349.78399   -350.67317    13795.165    4114.4384    17909.603   0.91018703 
  189300    348.71882   -346.92047    13753.156    3821.4599    17574.616   0.91018703 
  189400    353.14878   -401.61392    13927.869     3938.634    17866.503   0.91018703 
  189500    352.36846   -187.83388    13897.094    3813.7776    17710.872   0.91018703 
  189600    351.57944   -254.85558    13865.976    3943.3571    17809.333   0.91018703 
  189700    347.61473   -144.86402    13709.612    4094.8499    17804.461   0.91018703 
  189800    353.77635   -185.74781     13952.62    4020.0077    17972.628   0.91018703 
  189900     352.4354   -148.90632    13899.734     4040.732    17940.466   0.91018703 
  190000    353.73769   -88.146762    13951.095    3845.1879    17796.283   0.91018703 
  190100    354.49407   -117.28336    13980.926    3917.9514    17898.878   0.91018703 
  190200    358.28325    -271.2354    14130.368    4052.9838    18183.352   0.91018703 
  190300    356.86451    -236.5632    14074.414    3962.1116    18036.526   0.91018703 
  190400    352.19091   -187.27037    13890.092    4025.8364    17915.928   0.91018703 
  190500    353.02578   -319.79602    13923.018    3930.9584    17853.977   0.91018703 
  190600    355.70314   -258.32135    14028.611    4012.8948    18041.506   0.91018703 
  190700    354.82482   -189.03412    13993.971    4175.0067    18168.977   0.91018703 
  190800    356.96246   -79.764313    14078.277    3934.8262    18013.104   0.91018703 
  190900    353.26263   -133.26834    13932.359    4101.4229    18033.782   0.91018703 
  191000    351.23531   -345.11398    13852.404    4006.2277    17858.631   0.91018703 
  191100    354.03782     -472.515    13962.932    3790.9242    17753.856   0.91018703 
  191200     351.4319   -263.79244    13860.157    3886.4456    17746.603   0.91018703 
  191300    356.97141   -137.19597    14078.631    3988.2643    18066.895   0.91018703 
  191400    355.46962   -113.85412    14019.401    3912.6517    17932.053   0.91018703 
  191500    357.20715   -313.90478    14087.928     3974.701    18062.628   0.91018703 
  191600    355.88341   -216.49652    14035.721    4066.9384    18102.659   0.91018703 
  191700    352.87703   -273.54967    13917.152    3964.6532    17881.805   0.91018703 
  191800     354.9074   -256.45734    13997.228    4078.5857    18075.813   0.91018703 
  191900    356.21639   -204.44121    14048.853    4154.5728    18203.426   0.91018703 
  192000    357.48955   -211.41523    14099.065    3944.4393    18043.505   0.91018703 
  192100    355.66007   -366.71281    14026.912    4114.8754    18141.788   0.91018703 
  192200    356.47028   -313.28744    14058.866    4090.8867    18149.753   0.91018703 
  192300    355.07586   -158.29498    14003.871    4081.0211    18084.893   0.91018703 
  192400    355.04564   -397.23788     14002.68    4044.2511    18046.931   0.91018703 
  192500    355.96415   -243.93649    14038.905    4069.4652     18108.37   0.91018703 
  192600    357.93709   -253.04215    14116.716    4118.5334    18235.249   0.91018703 
  192700    357.29757   -296.22187    14091.494    4174.8909    18266.385   0.91018703 
  192800     360.8062   -395.14802    14229.871    4120.2942    18350.165   0.91018703 
  192900    357.89033   -349.37494    14114.872    4141.1717    18256.043   0.91018703 
  193000    352.37064   -253.52263     13897.18    4378.1247    18275.305   0.91018703 
  193100    359.85846    97.208431    14192.493       4087.6    18280.093   0.91018703 
  193200    359.29371     2.090066     14170.22    4071.1473    18241.367   0.91018703 
  193300    358.02355   -235.22812    14120.126    4053.1972    18173.323   0.91018703 
  193400    353.14101    -40.33297    13927.563     4010.331    17937.894   0.91018703 
  193500    357.15619   -80.394343    14085.918    4177.8179    18263.736   0.91018703 
  193600    356.82474   -234.65636    14072.846    4098.8365    18171.682   0.91018703 
  193700    351.78242    31.940797    13873.981    4159.6959    18033.677   0.91018703 
  193800    357.91294   -162.49591    14115.763    4136.6827    18252.446   0.91018703 
  193900    358.98468   -394.08953    14158.032    4082.6446    18240.677   0.91018703 
  194000     355.8853   -216.33717    14035.795    4023.4685    18059.264   0.91018703 
  194100    358.42079   -395.82536    14135.792    4115.3673     18251.16   0.91018703 
  194200    356.34667   -129.33387    14053.991     4143.436    18197.427   0.91018703 
  194300     359.8859   -292.61068    14193.575    4283.1737    18476.749   0.91018703 
  194400    357.76927   -142.24858    14110.097    4173.3461    18283.443   0.91018703 
  194500    360.90714   -51.895652    14233.852    4023.4905    18257.342   0.91018703 
  194600    357.13567   -170.22088    14085.109    4165.7366    18250.845   0.91018703 
  194700     359.4406   -181.15234    14176.013     4166.378    18342.391   0.91018703 
  194800    359.80514   -178.53389     14190.39    3987.2338    18177.624   0.91018703 
  194900    361.53491   -228.16237    14258.611    4139.7754    18398.386   0.91018703 
  195000    357.71128   -100.14891     14107.81    4063.4299     18171.24   0.91018703 
  195100    357.27878    60.255694    14090.753    4076.1173     18166.87   0.91018703 
  195200    353.11064   -303.44832    13926.365    4214.0745    18140.439   0.91018703 
  195300    350.59808   -278.89708    13827.272    4225.7863    18053.058   0.91018703 
  195400    355.70938   -322.38785    14028.857    4009.3865    18038.243   0.91018703 
  195500    356.76307   -265.78127    14070.414    4172.6003    18243.014   0.91018703 
  195600    360.49241   -376.99951    14217.495    4223.7141    18441.209   0.91018703 
  195700    354.07151   -258.89748    13964.261    4258.6886    18222.949   0.91018703 
  195800    359.14327   -244.88038    14164.287    4123.4746    18287.761   0.91018703 
  195900    362.15262   -131.91305    14282.973    4266.4431    18549.416   0.91018703 
  196000    359.27018   -260.61019    14169.292    4155.6673    18324.959   0.91018703 
  196100    363.55315   -332.13161    14338.208    4058.9876    18397.196   0.91018703 
  196200    358.61853   -57.323933    14143.591    4189.0489     18332.64   0.91018703 
  196300    360.45527   -459.94433    14216.031    4357.6691      18573.7   0.91018703 
  196400    362.72915   -164.26443    14305.711    4307.8469    18613.557   0.91018703 
  196500    362.48901   -132.16191     14296.24    4226.5729    18522.812   0.91018703 
  196600    359.33004   -157.72595    14171.653     4193.097     18364.75   0.91018703 
  196700     358.9155   -171.48088    14155.304    4160.0871    18315.391   0.91018703 
  196800     362.1257   -18.589417    14281.911    4294.2997    18576.211   0.91018703 
  196900    361.89335   -192.88464    14272.747    4216.5808    18489.328   0.91018703 
  197000    362.11044   -333.56138    14281.309    4165.4932    18446.802   0.91018703 
  197100    364.77587   -347.08089    14386.431    4359.6541    18746.085   0.91018703 
  197200    359.46803   -376.60143    14177.095    4512.3277    18689.422   0.91018703 
  197300    358.18768   -213.35519    14126.599    4317.2117     18443.81   0.91018703 
  197400    360.28991   -366.86705    14209.509    4334.7862    18544.295   0.91018703 
  197500     357.8934   -302.61794    14114.993    4289.9184    18404.911   0.91018703 
  197600    359.57719   -368.25468      14181.4    4427.6246    18609.025   0.91018703 
  197700     357.8037    -514.3542    14111.455    4216.8118    18328.267   0.91018703 
  197800    362.94219    -237.2767    14314.113    4199.5343    18513.647   0.91018703 
  197900    360.17626   -238.80738    14205.027    4291.7788    18496.806   0.91018703 
  198000    360.11371   -348.64311     14202.56    4362.1313    18564.691   0.91018703 
  198100    360.19744   -119.81369    14205.862    4354.5714    18560.433   0.91018703 
  198200    366.12303   -92.067462    14439.562    4272.1768    18711.739   0.91018703 
  198300    362.71101   -89.693105    14304.995    4345.1086    18650.104   0.91018703 
  198400     363.3007   -71.841756    14328.252    4284.1571    18612.409   0.91018703 
  198500    364.14693   -131.15481    14361.626    4317.8073    18679.434   0.91018703 
  198600    366.95658    -397.1037    14472.436    4446.1863    18918.623   0.91018703 
  198700    364.66397   -398.37153    14382.018    4434.5932    18816.611   0.91018703 
  198800    365.95387   -318.33327    14432.891     4438.021    18870.912   0.91018703 
  198900    364.49836    -108.3839    14375.486    4399.9977    18775.484   0.91018703 
  199000    361.36474   -154.11561    14251.899    4299.1699    18551.069   0.91018703 
  199100    363.66523   -123.77187    14342.629    4228.2467    18570.875   0.91018703 
  199200    364.62382   -135.92523    14380.434    4040.4942    18420.929   0.91018703 
  199300    364.52508   -289.72931     14376.54     4198.941    18575.481   0.91018703 
  199400    360.76628     89.38276    14228.296    4339.6693    18567.966   0.91018703 
  199500    359.37512   -27.839423     14173.43    4226.9109    18400.341   0.91018703 
  199600    364.89717   -148.84399    14391.215    3984.5956    18375.811   0.91018703 
  199700    363.02035   -203.80542    14317.195    4342.6869    18659.882   0.91018703 
  199800    366.58342   -423.01336    14457.719     4441.744    18899.463   0.91018703 
  199900    361.46849   -224.55864    14255.991    4482.7544    18738.745   0.91018703 
  200000    368.81252   -442.42187    14545.633    4413.9979    18959.631   0.91018703 
  200100    365.41334   -358.07655    14411.573    4527.6155    18939.188   0.91018703 
Loop time of 2241.08 on 12 procs for 100000 steps with 13232 atoms

Performance: 3.855 ns/day, 6.225 hours/ns, 44.621 timesteps/s
98.0% CPU use with 12 MPI tasks x 1 OpenMP threads

MPI task timing breakdown:
Section |  min time  |  avg time  |  max time  |%varavg| %total
---------------------------------------------------------------
Pair    | 1203.1     | 1432.3     | 1634.6     | 401.9 | 63.91
Bond    | 55.165     | 60.451     | 66.409     |  46.6 |  2.70
Kspace  | 493.46     | 671.7      | 874.67     | 526.1 | 29.97
Neigh   | 6.0138     | 6.0146     | 6.0151     |   0.0 |  0.27
Comm    | 24.92      | 54.38      | 85.409     | 267.2 |  2.43
Output  | 0.061969   | 0.070425   | 0.161      |  10.3 |  0.00
Modify  | 9.3138     | 9.7663     | 9.996      |   7.3 |  0.44
Other   |            | 6.402      |            |       |  0.29

Nlocal:    1102.67 ave 1176 max 1001 min
Histogram: 1 0 0 1 3 2 1 0 2 2
Nghost:    8876.25 ave 8944 max 8789 min
Histogram: 1 0 0 2 2 1 2 2 1 1
Neighs:    1.51851e+06 ave 1.64068e+06 max 1.33588e+06 min
Histogram: 1 0 2 1 0 2 0 2 1 3

Total # of neighbors = 18222178
Ave neighs/atom = 1377.13
Ave special neighs/atom = 8.5127
Neighbor list builds = 144
Dangerous builds = 0
System init for write_restart ...
Ewald initialization ...
WARNING: Using 12-bit tables for long-range coulomb (../kspace.cpp:321)
  G vector (1/distance) = 0.140043
  estimated absolute RMS force accuracy = 0.0368424
  estimated relative force accuracy = 0.00011095
  KSpace vectors: actual max1d max3d = 769 8 2456
                  kxmax kymax kzmax  = 7 6 8
Total wall time: 1:14:50
