LAMMPS (31 Mar 2017)
  using 1 OpenMP thread(s) per MPI task
Reading data file ...
  orthogonal box = (0 0 0) to (81.6 70.667 100)
  4 by 3 by 1 MPI processor grid
  reading atoms ...
  15024 atoms
  scanning bonds ...
  1 = max bonds/atom
  scanning angles ...
  6 = max angles/atom
  scanning dihedrals ...
  9 = max dihedrals/atom
  reading bonds ...
  13568 bonds
  reading angles ...
  24832 angles
  reading dihedrals ...
  26880 dihedrals
Finding 1-2 1-3 1-4 neighbors ...
  special bond factors lj:   0          0          0.5       
  special bond factors coul: 0          0          0.5       
  4 = max # of 1-2 neighbors
  6 = max # of 1-3 neighbors
  12 = max # of 1-4 neighbors
  14 = max # of special neighbors
1200 atoms in group gold
256 atoms in group thiol
13824 atoms in group dynamic
Ewald initialization ...
WARNING: System is not charge neutral, net charge = 5.632e-05 (../kspace.cpp:302)
WARNING: Using 12-bit tables for long-range coulomb (../kspace.cpp:321)
  G vector (1/distance) = 0.142093
  estimated absolute RMS force accuracy = 0.0384861
  estimated relative force accuracy = 0.0001159
  KSpace vectors: actual max1d max3d = 769 8 2456
                  kxmax kymax kzmax  = 7 6 8
Neighbor list info ...
  update every 1 steps, delay 0 steps, check yes
  max neighbors/atom: 30000, page size: 300000
  master list distance cutoff = 22
  ghost atom cutoff = 22
  binsize = 11, bins = 8 7 10
  3 neighbor lists, perpetual/occasional/extra = 3 0 0
  (1) pair lj/cut/coul/long, perpetual, skip from (3)
      attributes: half, newton on
      pair build: skip
      stencil: none
      bin: none
  (2) pair morse, perpetual, skip from (3)
      attributes: half, newton on
      pair build: skip
      stencil: none
      bin: none
  (3) neighbor class addition, perpetual
      attributes: half, newton on
      pair build: half/bin/newton
      stencil: half/bin/3d/newton
      bin: standard
Setting up cg style minimization ...
  Unit style    : real
Per MPI rank memory allocation (min/avg/max) = 43.24 | 43.91 | 45.53 Mbytes
Step Temp Press KinEng PotEng TotEng Density 
       0            0   -963.66447            0   -2568.9778   -2568.9778   0.94266267 
     100            0   -1539.7944            0    -10520.88    -10520.88   0.94266267 
Loop time of 5.24026 on 12 procs for 100 steps with 15024 atoms

99.2% CPU use with 12 MPI tasks x 1 OpenMP threads

Minimization stats:
  Stopping criterion = max iterations
  Energy initial, next-to-last, final = 
         -2568.9778036     -10507.8782072     -10520.8795589
  Force two-norm initial, final = 1203.9 102.131
  Force max component initial, final = 27.8316 4.95246
  Final line search alpha, max atom move = 0.00414246 0.0205154
  Iterations, force evaluations = 100 198

MPI task timing breakdown:
Section |  min time  |  avg time  |  max time  |%varavg| %total
---------------------------------------------------------------
Pair    | 3.5999     | 3.837      | 3.9754     |   6.2 | 73.22
Bond    | 0.13743    | 0.14323    | 0.14958    |   1.1 |  2.73
Kspace  | 1.0294     | 1.1538     | 1.3639     |  10.4 | 22.02
Neigh   | 0          | 0          | 0          |   0.0 |  0.00
Comm    | 0.063861   | 0.089675   | 0.12149    |   5.3 |  1.71
Output  | 4.0054e-05 | 4.6094e-05 | 0.0001049  |   0.0 |  0.00
Modify  | 0.00040793 | 0.0004639  | 0.00052047 |   0.0 |  0.01
Other   |            | 0.0161     |            |       |  0.31

Nlocal:    1252 ave 1281 max 1211 min
Histogram: 1 0 1 0 3 1 2 1 0 3
Nghost:    10049.2 ave 10109 max 10007 min
Histogram: 3 0 2 1 1 0 4 0 0 1
Neighs:    1.86329e+06 ave 1.90834e+06 max 1.78031e+06 min
Histogram: 1 0 1 0 1 2 1 2 1 3

Total # of neighbors = 22359474
Ave neighs/atom = 1488.25
Ave special neighs/atom = 8.6901
Neighbor list builds = 0
Dangerous builds = 0
Ewald initialization ...
WARNING: Using 12-bit tables for long-range coulomb (../kspace.cpp:321)
  G vector (1/distance) = 0.142093
  estimated absolute RMS force accuracy = 0.0384861
  estimated relative force accuracy = 0.0001159
  KSpace vectors: actual max1d max3d = 769 8 2456
                  kxmax kymax kzmax  = 7 6 8
Setting up Verlet run ...
  Unit style    : real
  Current step  : 100
  Time step     : 1
Per MPI rank memory allocation (min/avg/max) = 42.13 | 42.8 | 44.42 Mbytes
Step Temp Press KinEng PotEng TotEng Density 
     100            0   -1539.7944            0    -10520.88    -10520.88   0.94266267 
     200    1.2172742   -1596.2621    54.510403   -10645.221   -10590.711   0.94266267 
     300    1.1195804   -1647.7627    50.135606   -10696.408   -10646.272   0.94266267 
     400    1.1668036   -1654.7979    52.250293   -10727.347   -10675.097   0.94266267 
     500    1.3295178   -1652.3587     59.53675   -10761.896    -10702.36   0.94266267 
     600    1.5682696   -1654.4685    70.228226   -10791.535   -10721.307   0.94266267 
     700    1.7668759   -1668.4414    79.121958   -10815.438   -10736.316   0.94266267 
     800    2.0381847   -1666.6512    91.271355   -10836.995   -10745.723   0.94266267 
     900    2.2529452   -1652.9857    100.88848   -10853.303   -10752.414   0.94266267 
    1000    2.5009085   -1646.4996    111.99246   -10863.912   -10751.919   0.94266267 
    1100    2.7666926    -1651.893    123.89446   -10875.285   -10751.391   0.94266267 
    1200    3.0586133   -1618.9311    136.96687   -10882.501   -10745.535   0.94266267 
    1300    3.3006522   -1623.1422    147.80555   -10889.872   -10742.066   0.94266267 
    1400    3.5663268   -1603.6187    159.70264   -10896.514   -10736.812   0.94266267 
    1500    3.8328419   -1601.2687    171.63738    -10899.11   -10727.473   0.94266267 
    1600    4.1073871   -1577.2772    183.93171   -10905.617   -10721.685   0.94266267 
    1700    4.3313042   -1564.7143    193.95888   -10910.437   -10716.478   0.94266267 
    1800    4.6872622   -1559.5935    209.89892   -10919.935   -10710.036   0.94266267 
    1900    4.9106262   -1555.2768    219.90133   -10923.063   -10703.162   0.94266267 
    2000    5.2062579    -1582.138    233.13992   -10930.277   -10697.137   0.94266267 
    2100    5.4350142   -1573.5931    243.38379   -10935.692   -10692.308   0.94266267 
    2200    5.6882113   -1560.6765    254.72214   -10939.756   -10685.034   0.94266267 
    2300    6.0260587   -1562.1119    269.85118   -10943.921   -10674.069   0.94266267 
    2400    6.2646337     -1528.58    280.53474   -10947.146   -10666.612   0.94266267 
    2500    6.4824103   -1517.0057    290.28693   -10951.881   -10661.594   0.94266267 
    2600    6.7397036    -1529.572    301.80871     -10954.1   -10652.292   0.94266267 
    2700    7.0117004   -1546.1024    313.98892   -10955.058   -10641.069   0.94266267 
    2800    7.2696196     -1507.59    325.53872   -10952.065   -10626.526   0.94266267 
    2900    7.4831522   -1492.3696    335.10087    -10957.29   -10622.189   0.94266267 
    3000    7.7793939   -1511.5938    348.36678   -10960.014   -10611.647   0.94266267 
    3100     8.012536   -1516.6468    358.80705   -10959.464   -10600.657   0.94266267 
    3200    8.2158282   -1492.5886    367.91062   -10958.847   -10590.936   0.94266267 
    3300    8.4908771   -1495.9256     380.2275   -10963.151   -10582.924   0.94266267 
    3400    8.6792661   -1487.4382    388.66369   -10965.196   -10576.532   0.94266267 
    3500    8.9144204   -1445.3605    399.19407   -10968.071   -10568.877   0.94266267 
    3600    9.1313875   -1468.6096    408.91001    -10968.33    -10559.42   0.94266267 
    3700    9.2713027   -1452.8227    415.17551   -10967.733   -10552.558   0.94266267 
    3800    9.5093547   -1450.8314    425.83565   -10966.019   -10540.183   0.94266267 
    3900    9.7397985    -1459.569    436.15509   -10966.664   -10530.509   0.94266267 
    4000    9.9777891   -1424.7403    446.81247   -10963.666   -10516.854   0.94266267 
    4100    10.256544   -1404.9447    459.29531   -10964.807   -10505.512   0.94266267 
    4200    10.248339   -1440.3774     458.9279    -10966.77   -10507.842   0.94266267 
    4300    10.518581   -1429.3183    471.02954   -10970.584   -10499.555   0.94266267 
    4400    10.682066   -1418.6717    478.35051   -10974.934   -10496.583   0.94266267 
    4500    10.818337   -1445.9644    484.45283   -10967.325   -10482.872   0.94266267 
    4600    11.220598   -1466.1361    502.46636   -10974.487   -10472.021   0.94266267 
    4700    11.258346   -1436.1028    504.15674   -10968.959   -10464.803   0.94266267 
    4800    11.352165   -1423.3737    508.35802   -10970.881   -10462.523   0.94266267 
    4900    11.463887   -1390.2041      513.361   -10964.595   -10451.234   0.94266267 
    5000    11.653491   -1445.3271    521.85159   -10954.405   -10432.554   0.94266267 
    5100     11.75929   -1430.6815    526.58934   -10956.556   -10429.966   0.94266267 
    5200    12.034701   -1395.3224    538.92247   -10959.202   -10420.279   0.94266267 
    5300    12.041707   -1385.3656    539.23619     -10958.5   -10419.263   0.94266267 
    5400    12.124471   -1366.3706    542.94239   -10954.996   -10412.053   0.94266267 
    5500     12.53957   -1377.2543    561.53086   -10950.599   -10389.069   0.94266267 
    5600    12.570022   -1423.3812    562.89452   -10937.282   -10374.387   0.94266267 
    5700    12.825639   -1403.4052    574.34123   -10948.469   -10374.128   0.94266267 
    5800    12.979907   -1387.1898    581.24944   -10951.902   -10370.653   0.94266267 
    5900    13.045676   -1403.5585    584.19462   -10936.956   -10352.761   0.94266267 
    6000    13.196089   -1376.3786    590.93022    -10937.23     -10346.3   0.94266267 
    6100    13.343699   -1376.3984    597.54033   -10942.565   -10345.025   0.94266267 
    6200    13.459372   -1371.1294    602.72024   -10941.451   -10338.731   0.94266267 
    6300    13.320104   -1359.9677     596.4837   -10939.098   -10342.614   0.94266267 
    6400    13.643188   -1411.2184    610.95164   -10929.154   -10318.203   0.94266267 
    6500    13.663322   -1461.6782    611.85324   -10931.418   -10319.565   0.94266267 
    6600    13.968589   -1413.9217    625.52334   -10925.901   -10300.377   0.94266267 
    6700    14.108807   -1378.7756    631.80238   -10929.085   -10297.283   0.94266267 
    6800    14.155239   -1369.7195    633.88162   -10918.178   -10284.296   0.94266267 
    6900    14.391755   -1356.8368    644.47298   -10917.884   -10273.411   0.94266267 
    7000      14.5117   -1306.8438     649.8442   -10927.762   -10277.917   0.94266267 
    7100    14.548856   -1317.5921    651.50811   -10920.816   -10269.307   0.94266267 
    7200    14.779135    -1351.103    661.82013   -10916.453   -10254.633   0.94266267 
    7300    14.792975   -1356.2475    662.43989   -10916.325   -10253.885   0.94266267 
    7400    14.860445   -1345.0928    665.46128   -10912.049   -10246.587   0.94266267 
    7500    14.985854   -1359.6443    671.07719   -10919.118   -10248.041   0.94266267 
    7600    15.116864   -1368.6789    676.94388   -10918.638   -10241.694   0.94266267 
    7700    15.321915   -1297.4673    686.12621   -10909.985   -10223.859   0.94266267 
    7800    15.152882   -1292.4013    678.55679   -10911.596    -10233.04   0.94266267 
    7900     15.43514   -1293.1379    691.19652   -10904.958   -10213.761   0.94266267 
    8000     15.60868   -1295.5619    698.96776   -10908.044   -10209.076   0.94266267 
    8100    15.751811   -1336.6062    705.37728   -10910.369   -10204.992   0.94266267 
    8200     15.78832   -1313.3876    707.01217   -10900.698   -10193.686   0.94266267 
    8300     15.99828   -1263.1037    716.41432   -10901.842   -10185.428   0.94266267 
    8400    16.177277    -1320.295    724.42992   -10907.795   -10183.365   0.94266267 
    8500    16.202427   -1260.5765    725.55618   -10903.543   -10177.987   0.94266267 
    8600    16.367826   -1294.5664    732.96285   -10904.384   -10171.421   0.94266267 
    8700    16.407028   -1392.0616    734.71837   -10896.446   -10161.727   0.94266267 
    8800    16.556315   -1323.8706    741.40354   -10893.221   -10151.818   0.94266267 
    8900    16.765804   -1259.1318    750.78458   -10906.033   -10155.249   0.94266267 
    9000     16.87503   -1307.4359    755.67581   -10895.389   -10139.713   0.94266267 
    9100    16.783994   -1304.6096    751.59917   -10896.845   -10145.246   0.94266267 
    9200    16.720354   -1272.6845     748.7493   -10896.785   -10148.036   0.94266267 
    9300    16.825258   -1290.8946    753.44697    -10892.67   -10139.223   0.94266267 
    9400    17.040952   -1312.8326    763.10591   -10900.239   -10137.133   0.94266267 
    9500    17.012185   -1280.3986     761.8177   -10899.659   -10137.841   0.94266267 
    9600    17.289401   -1306.1057    774.23164   -10906.517   -10132.286   0.94266267 
    9700     17.37318   -1340.0245    777.98331   -10898.329   -10120.346   0.94266267 
    9800    17.408972   -1293.2827    779.58612   -10899.996    -10120.41   0.94266267 
    9900    17.575918   -1302.2737    787.06206   -10898.894   -10111.832   0.94266267 
   10000    17.642847   -1324.2982    790.05919   -10896.237   -10106.178   0.94266267 
   10100    17.604644   -1304.6684    788.34845   -10886.225   -10097.876   0.94266267 
   10200    17.894818   -1282.4891    801.34264   -10882.111   -10080.768   0.94266267 
   10300    17.837391   -1277.0699      798.771   -10876.667   -10077.896   0.94266267 
   10400    17.865739   -1305.9481    800.04047   -10879.094   -10079.053   0.94266267 
   10500    18.065347   -1281.2588    808.97904   -10894.463   -10085.484   0.94266267 
   10600    18.197254   -1302.3216    814.88594   -10870.754   -10055.868   0.94266267 
   10700    18.474207   -1315.8321     827.2881   -10877.468    -10050.18   0.94266267 
   10800    18.284903   -1284.0956    818.81094   -10880.629   -10061.818   0.94266267 
   10900    18.289561    -1257.554    819.01952   -10872.113   -10053.094   0.94266267 
   11000    18.396918   -1266.0026    823.82705   -10883.385   -10059.558   0.94266267 
   11100    18.899982   -1309.4735    846.35462    -10869.14   -10022.785   0.94266267 
   11200    18.643729   -1294.1494    834.87941    -10874.17   -10039.291   0.94266267 
   11300    18.907583   -1307.8241    846.69499   -10874.092   -10027.397   0.94266267 
   11400    18.710268   -1345.7191    837.85908    -10881.05   -10043.191   0.94266267 
   11500    18.603062   -1292.7514    833.05831   -10874.116   -10041.057   0.94266267 
   11600    19.005755   -1311.5092    851.09121    -10875.43   -10024.339   0.94266267 
   11700    19.150753    -1272.436    857.58431   -10870.786   -10013.201   0.94266267 
   11800     19.29799   -1265.3166    864.17766   -10870.261   -10006.083   0.94266267 
   11900    19.053082   -1303.9402    853.21055   -10875.655   -10022.444   0.94266267 
   12000    19.276046   -1281.2318      863.195   -10866.538   -10003.343   0.94266267 
   12100    19.363676    -1279.085    867.11916   -10872.444   -10005.325   0.94266267 
   12200    19.523367   -1278.2155    874.27023   -10857.968   -9983.6982   0.94266267 
   12300    19.562993   -1289.5085    876.04469   -10851.405   -9975.3607   0.94266267 
   12400    19.722425   -1259.6597    883.18417   -10863.059   -9979.8752   0.94266267 
   12500    19.681352   -1291.2839    881.34491   -10850.276   -9968.9309   0.94266267 
   12600    19.866451   -1276.5464    889.63379   -10855.904   -9966.2703   0.94266267 
   12700     19.93874   -1268.0108    892.87094    -10848.35    -9955.479   0.94266267 
   12800    20.187128   -1276.0929     903.9939   -10862.991   -9958.9974   0.94266267 
   12900    20.201544   -1281.8799    904.63947   -10867.259   -9962.6192   0.94266267 
   13000    19.977046   -1294.1119    894.58628   -10856.844   -9962.2575   0.94266267 
   13100    20.138912   -1314.8589    901.83476   -10849.594   -9947.7597   0.94266267 
   13200    20.325724   -1245.8253    910.20032   -10860.194    -9949.994   0.94266267 
   13300    20.337456   -1262.6907    910.72573   -10859.395   -9948.6689   0.94266267 
   13400    20.494369   -1302.9213    917.75238   -10860.277   -9942.5251   0.94266267 
   13500    20.301055   -1290.0144    909.09565   -10836.963   -9927.8672   0.94266267 
   13600    20.669752   -1220.6266    925.60614    -10853.16   -9927.5538   0.94266267 
   13700    20.649187   -1253.1294    924.68524    -10846.73   -9922.0444   0.94266267 
   13800    20.800923   -1211.6165    931.48007   -10835.824   -9904.3436   0.94266267 
   13900    20.775342   -1239.6303    930.33455   -10839.311   -9908.9767   0.94266267 
   14000    20.974995   -1192.1091    939.27515   -10840.236   -9900.9604   0.94266267 
   14100    21.105172   -1236.3715    945.10459   -10844.819   -9899.7143   0.94266267 
   14200    21.131686   -1258.9708    946.29187   -10846.931   -9900.6391   0.94266267 
   14300    21.213893   -1285.3638    949.97318   -10836.917   -9886.9433   0.94266267 
   14400    21.160669   -1270.3032    947.58977   -10831.512   -9883.9223   0.94266267 
   14500     21.30764   -1244.0636    954.17122   -10831.326    -9877.155   0.94266267 
   14600    21.292614   -1274.4375    953.49836   -10841.572   -9888.0739   0.94266267 
   14700    21.313576   -1236.0434    954.43705   -10837.619    -9883.182   0.94266267 
   14800    21.370925   -1202.0697    957.00517   -10836.108   -9879.1027   0.94266267 
   14900    21.639352   -1200.0659    969.02553   -10833.113   -9864.0877   0.94266267 
   15000    21.542436   -1248.7884    964.68556   -10827.474   -9862.7889   0.94266267 
   15100    21.701838   -1247.0176     971.8237   -10823.955   -9852.1315   0.94266267 
   15200    21.897886   -1236.5935    980.60288   -10813.637   -9833.0345   0.94266267 
   15300    21.911824   -1182.8269    981.22704   -10813.986   -9832.7591   0.94266267 
   15400    21.772712   -1233.3304    974.99747    -10809.76   -9834.7625   0.94266267 
   15500    22.273749   -1192.3379    997.43429   -10815.381   -9817.9463   0.94266267 
   15600    21.983798   -1248.7398    984.45006   -10817.812   -9833.3621   0.94266267 
   15700    22.191381   -1200.1227    993.74578   -10804.631   -9810.8851   0.94266267 
   15800    22.532726   -1278.9122    1009.0314   -10804.953   -9795.9217   0.94266267 
   15900    22.109387    -1197.768    990.07405    -10805.38   -9815.3061   0.94266267 
   16000    22.379073   -1216.5854    1002.1507   -10820.642   -9818.4913   0.94266267 
   16100     22.70447   -1214.8786    1016.7223   -10791.627   -9774.9052   0.94266267 
   16200    22.423231   -1291.2001    1004.1282   -10803.726   -9799.5982   0.94266267 
   16300    22.563606   -1254.8713    1010.4143    -10804.46   -9794.0458   0.94266267 
   16400    22.695105   -1168.8724    1016.3029   -10798.169   -9781.8661   0.94266267 
   16500    22.890027   -1134.5656    1025.0317   -10803.022   -9777.9901   0.94266267 
   16600    23.030544   -1209.2979    1031.3241   -10797.604   -9766.2794   0.94266267 
   16700    22.616287   -1228.6082    1012.7734    -10805.45   -9792.6763   0.94266267 
   16800    23.000657   -1213.5827    1029.9857     -10786.7   -9756.7142   0.94266267 
   16900    22.838503   -1257.1804    1022.7243   -10791.389    -9768.665   0.94266267 
   17000    23.371872        -1187     1046.609   -10798.079   -9751.4695   0.94266267 
   17100    23.220824   -1162.6286     1039.845   -10798.192   -9758.3466   0.94266267 
   17200    23.072972   -1213.6614    1033.2241   -10794.853   -9761.6285   0.94266267 
   17300    23.335855   -1249.5708    1044.9962   -10780.535   -9735.5388   0.94266267 
   17400     23.46013    -1259.715    1050.5613   -10804.742   -9754.1802   0.94266267 
   17500    23.420252   -1174.7278    1048.7755   -10780.242   -9731.4667   0.94266267 
   17600    23.503469    -1172.624     1052.502   -10777.042   -9724.5404   0.94266267 
   17700    23.534171   -1196.0306    1053.8769   -10771.799   -9717.9222   0.94266267 
   17800    23.719996   -1182.8022    1062.1982    -10781.58   -9719.3816   0.94266267 
   17900    23.448874   -1232.7957    1050.0572   -10765.012   -9714.9546   0.94266267 
   18000    23.579817   -1257.5415    1055.9209   -10781.441   -9725.5201   0.94266267 
   18100    23.868148   -1185.1035    1068.8326   -10767.747   -9698.9146   0.94266267 
   18200    23.977189   -1201.0625    1073.7156   -10761.684    -9687.968   0.94266267 
   18300    23.914827   -1132.6001    1070.9229   -10773.815   -9702.8919   0.94266267 
   18400     23.91604   -1152.1012    1070.9772   -10751.804   -9680.8268   0.94266267 
   18500    24.054489   -1179.2782    1077.1771   -10769.158   -9691.9814   0.94266267 
   18600    24.196064    -1215.652    1083.5169   -10756.933   -9673.4157   0.94266267 
   18700    24.420287   -1158.5726    1093.5578   -10763.215   -9669.6577   0.94266267 
   18800    24.360081   -1159.5268    1090.8617   -10764.213   -9673.3515   0.94266267 
   18900    24.059056   -1162.3539    1077.3816   -10757.783   -9680.4018   0.94266267 
   19000    24.263166   -1189.9418    1086.5218   -10754.899   -9668.3776   0.94266267 
   19100     24.47277   -1134.3546     1095.908   -10754.111   -9658.2028   0.94266267 
   19200    24.283165    -1151.871    1087.4173   -10763.619    -9676.202   0.94266267 
   19300    24.465863   -1107.6783    1095.5987   -10739.961   -9644.3619   0.94266267 
   19400      24.4668   -1181.8147    1095.6406   -10753.528   -9657.8878   0.94266267 
   19500     24.72869   -1138.1564    1107.3683   -10754.436   -9647.0676   0.94266267 
   19600    24.702156   -1109.5619    1106.1801   -10741.045    -9634.865   0.94266267 
   19700    24.609898   -1164.5102    1102.0487   -10762.893   -9660.8446   0.94266267 
   19800     24.93727   -1232.2693    1116.7086   -10741.816   -9625.1071   0.94266267 
   19900    24.805266   -1171.6224    1110.7974   -10722.135    -9611.338   0.94266267 
   20000    24.703967   -1203.5137    1106.2611   -10727.745   -9621.4834   0.94266267 
   20100    24.888664    -1126.253     1114.532   -10739.713   -9625.1812   0.94266267 
   20200     25.02553    -1206.636     1120.661   -10733.809   -9613.1484   0.94266267 
   20300    25.279898    -1196.162    1132.0518   -10729.258   -9597.2064   0.94266267 
   20400     25.15207   -1200.1921    1126.3276    -10727.26   -9600.9327   0.94266267 
   20500    25.498743   -1120.4415    1141.8518   -10742.382   -9600.5298   0.94266267 
   20600    25.361436   -1147.0874    1135.7031   -10720.968   -9585.2647   0.94266267 
   20700    25.436244   -1163.3655    1139.0531   -10724.831   -9585.7783   0.94266267 
   20800    25.339928   -1239.0592      1134.74   -10720.643   -9585.9035   0.94266267 
   20900    25.762263   -1228.8613    1153.6524   -10724.533   -9570.8808   0.94266267 
   21000    25.860868   -1124.4483     1158.068   -10734.288   -9576.2198   0.94266267 
   21100    25.721067    -1148.042    1151.8076   -10708.153   -9556.3457   0.94266267 
   21200    25.655598   -1200.1705    1148.8759   -10710.953   -9562.0769   0.94266267 
   21300    25.649174   -1100.6614    1148.5882   -10721.059   -9572.4704   0.94266267 
   21400    25.808382   -1116.8207    1155.7177   -10707.642   -9551.9242   0.94266267 
   21500    25.830876    -1215.312    1156.7249    -10727.61   -9570.8851   0.94266267 
   21600    25.805333   -1151.5485    1155.5811   -10706.672   -9551.0906   0.94266267 
   21700    26.052953   -1165.0122    1166.6697   -10722.685   -9556.0154   0.94266267 
   21800     26.23923   -1162.7882    1175.0113   -10715.127   -9540.1154   0.94266267 
   21900     25.90697   -1167.6347    1160.1325   -10703.505   -9543.3724   0.94266267 
   22000    25.966962   -1144.9052     1162.819   -10696.693   -9533.8739   0.94266267 
   22100    26.261531   -1102.6714      1176.01   -10699.354   -9523.3445   0.94266267 
   22200    26.438763   -1145.0729    1183.9466   -10703.034   -9519.0877   0.94266267 
   22300     26.25871    -1153.438    1175.8836   -10691.376   -9515.4928   0.94266267 
   22400     26.41259   -1128.2884    1182.7745   -10690.551   -9507.7766   0.94266267 
   22500    26.471447   -1063.5512    1185.4102   -10701.664   -9516.2535   0.94266267 
   22600    26.528646   -1074.8089    1187.9716   -10678.866   -9490.8943   0.94266267 
   22700    26.860059   -1073.6134    1202.8125   -10690.104   -9487.2918   0.94266267 
   22800    26.444906   -1078.5682    1184.2217   -10674.902   -9490.6808   0.94266267 
   22900    26.731371   -1133.7508    1197.0497   -10680.854   -9483.8039   0.94266267 
   23000     26.87708   -1107.0842    1203.5747   -10677.763   -9474.1878   0.94266267 
   23100    26.852736   -1150.5463    1202.4846   -10679.778   -9477.2935   0.94266267 
   23200     26.92407   -1171.4222     1205.679   -10675.568   -9469.8895   0.94266267 
   23300    27.002392   -1153.0616    1209.1863   -10667.349   -9458.1632   0.94266267 
   23400    26.981391   -1090.1223    1208.2458   -10671.536   -9463.2899   0.94266267 
   23500    26.966766   -1103.5651    1207.5909   -10692.468   -9484.8773   0.94266267 
   23600    26.944018   -1130.5892    1206.5722   -10685.931   -9479.3589   0.94266267 
   23700    26.700481   -1140.5259    1195.6665   -10676.413   -9480.7461   0.94266267 
   23800    27.123641   -1161.9534    1214.6159   -10672.769   -9458.1529   0.94266267 
   23900    27.085405   -1105.9199    1212.9037   -10657.548   -9444.6442   0.94266267 
   24000    27.297438    -1113.526    1222.3986   -10669.916   -9447.5175   0.94266267 
   24100    27.188754   -1096.8915    1217.5317   -10669.236   -9451.7044   0.94266267 
   24200    27.230535   -1138.3291    1219.4027   -10661.285   -9441.8821   0.94266267 
   24300    27.317254   -1098.8842     1223.286   -10671.594   -9448.3076   0.94266267 
   24400     27.40855   -1130.8954    1227.3743   -10653.338   -9425.9634   0.94266267 
   24500    27.508295   -1109.5596     1231.841   -10650.533   -9418.6924   0.94266267 
   24600    27.725694   -1093.7508    1241.5762   -10650.315   -9408.7389   0.94266267 
   24700    27.557532   -1117.3109    1234.0458   -10650.698   -9416.6522   0.94266267 
   24800    27.638035   -1107.8278    1237.6508   -10640.783   -9403.1326   0.94266267 
   24900    28.083995   -1156.7552    1257.6212   -10647.282   -9389.6607   0.94266267 
   25000     27.61057   -1115.3985    1236.4209   -10641.686   -9405.2646   0.94266267 
   25100    27.825612   -1140.2821    1246.0506   -10648.806   -9402.7553   0.94266267 
   25200    27.994452   -1147.3023    1253.6114    -10633.73   -9380.1183   0.94266267 
   25300     27.89347   -1022.1223    1249.0894   -10645.028   -9395.9384   0.94266267 
   25400    27.949033   -1091.6458    1251.5775   -10642.682   -9391.1047   0.94266267 
   25500    28.288202   -1060.1826    1266.7657   -10635.273   -9368.5077   0.94266267 
   25600    27.854722   -1058.1837    1247.3542   -10620.758   -9373.4034   0.94266267 
   25700     28.24023   -1093.1939    1264.6175   -10621.986    -9357.369   0.94266267 
   25800    28.513033   -1087.4238    1276.8338   -10631.309   -9354.4756   0.94266267 
   25900    28.333925   -1135.4409    1268.8133   -10627.564   -9358.7508   0.94266267 
   26000     28.11599   -1063.6273     1259.054   -10622.922   -9363.8682   0.94266267 
   26100    28.547282   -1055.8208    1278.3676   -10614.943   -9336.5753   0.94266267 
   26200    28.333766   -1037.2331    1268.8062   -10631.633    -9362.827   0.94266267 
   26300    28.535938   -1134.9914    1277.8595   -10634.342   -9356.4829   0.94266267 
   26400    28.397725   -1166.9543    1271.6703   -10627.897   -9356.2267   0.94266267 
   26500    28.883952   -1075.0347    1293.4439   -10619.654   -9326.2102   0.94266267 
   26600    29.039752    -1119.675    1300.4207   -10622.242   -9321.8208   0.94266267 
   26700    28.731854   -1073.5161    1286.6328   -10619.726   -9333.0935   0.94266267 
   26800    29.089909   -1116.8381    1302.6668   -10622.646   -9319.9796   0.94266267 
   26900    28.933044    -1097.173    1295.6422   -10614.187   -9318.5449   0.94266267 
   27000    28.943481   -1070.4335    1296.1096   -10625.723   -9329.6137   0.94266267 
   27100    28.885807   -1072.0017    1293.5269   -10590.542    -9297.015   0.94266267 
   27200    29.302091   -1082.6618    1312.1684   -10615.084    -9302.916   0.94266267 
   27300    28.896408   -1044.9349    1294.0016   -10603.221   -9309.2194   0.94266267 
   27400    29.412743   -1078.3506    1317.1235   -10607.486   -9290.3623   0.94266267 
   27500    29.226488   -1152.6317    1308.7828   -10590.352   -9281.5687   0.94266267 
   27600    29.542519   -1073.1419    1322.9349   -10598.875   -9275.9399   0.94266267 
   27700    29.097782   -1057.8913    1303.0193   -10612.219   -9309.2001   0.94266267 
   27800    29.056233     -1055.19    1301.1587   -10609.432   -9308.2731   0.94266267 
   27900    29.699372   -1102.2072    1329.9589   -10617.737   -9287.7782   0.94266267 
   28000    29.532267   -1062.6807    1322.4759   -10615.761   -9293.2849   0.94266267 
   28100    29.012143   -1099.2949    1299.1843   -10604.353   -9305.1686   0.94266267 
   28200    29.463342   -1051.2805    1319.3893   -10606.115    -9286.726   0.94266267 
   28300     29.59165   -1059.1313    1325.1351   -10592.559   -9267.4244   0.94266267 
   28400    29.848684   -1067.6166    1336.6453    -10613.55   -9276.9051   0.94266267 
   28500    29.840115   -1081.5642    1336.2615    -10605.38   -9269.1184   0.94266267 
   28600    29.410246   -1112.6606    1317.0117   -10601.776    -9284.764   0.94266267 
   28700    30.019073   -1025.1694    1344.2754   -10584.748   -9240.4724   0.94266267 
   28800    29.963523   -1061.2084    1341.7878   -10590.662   -9248.8742   0.94266267 
   28900    29.876013   -969.03816    1337.8691   -10602.997   -9265.1279   0.94266267 
   29000    29.724523   -1050.3862    1331.0852   -10600.662   -9269.5763   0.94266267 
   29100    30.013329   -1038.3248    1344.0182   -10602.684   -9258.6658   0.94266267 
   29200    30.426702   -971.28398    1362.5293   -10600.615   -9238.0859   0.94266267 
   29300    30.124635   -1061.0412    1349.0025    -10582.15   -9233.1473   0.94266267 
   29400    30.272486   -1061.6267    1355.6234   -10598.687   -9243.0634   0.94266267 
   29500    30.380278   -1023.4447    1360.4504   -10577.114    -9216.664   0.94266267 
   29600    30.259051   -1095.1524    1355.0217   -10571.474   -9216.4519   0.94266267 
   29700    30.640034   -995.50169    1372.0825   -10581.346   -9209.2634   0.94266267 
   29800    30.587546   -1008.2855     1369.732   -10572.678   -9202.9456   0.94266267 
   29900    30.335497   -1087.4828    1358.4451   -10580.731   -9222.2862   0.94266267 
   30000    30.532031   -1008.0542     1367.246    -10579.15    -9211.904   0.94266267 
   30100    30.417732   -1046.6028    1362.1276   -10571.194   -9209.0659   0.94266267 
   30200    30.454414   -941.05981    1363.7703   -10552.954   -9189.1839   0.94266267 
   30300     30.50553   -1042.1956    1366.0593   -10566.901   -9200.8421   0.94266267 
   30400    30.827526   -1041.9331    1380.4785   -10558.708   -9178.2294   0.94266267 
   30500    30.868788   -1051.1369    1382.3262   -10557.062   -9174.7357   0.94266267 
   30600    30.590264   -1069.1525    1369.8537   -10577.324   -9207.4704   0.94266267 
   30700    30.996753   -1032.3129    1388.0566   -10556.856   -9168.7994   0.94266267 
   30800    30.687046   -1003.2721    1374.1877   -10559.695   -9185.5069   0.94266267 
   30900    31.089375   -1014.6595    1392.2043    -10536.09   -9143.8862   0.94266267 
   31000    31.049254   -1078.0786    1390.4076   -10559.288   -9168.8807   0.94266267 
   31100    30.553238   -1031.4598    1368.1957   -10544.985   -9176.7894   0.94266267 
   31200    30.846782   -932.16701    1381.3408   -10548.424   -9167.0832   0.94266267 
   31300    30.784523   -1002.5246    1378.5528   -10554.964   -9176.4116   0.94266267 
   31400    30.900692   -981.08816    1383.7549   -10541.448   -9157.6928   0.94266267 
   31500    30.923203   -975.12573     1384.763   -10562.112   -9177.3488   0.94266267 
   31600    31.438113    -1100.154     1407.821   -10552.745   -9144.9243   0.94266267 
   31700    31.537942   -1043.5981    1412.2914    -10551.58   -9139.2883   0.94266267 
   31800    31.470392   -1101.3735    1409.2665   -10527.734   -9118.4671   0.94266267 
   31900    31.301887   -1081.6324    1401.7207   -10529.474   -9127.7533   0.94266267 
   32000    31.801835   -1010.7522    1424.1087   -10533.622   -9109.5137   0.94266267 
   32100    31.665901   -1006.4778    1418.0215   -10529.011   -9110.9897   0.94266267 
   32200    31.605956   -1045.1401    1415.3371    -10535.95   -9120.6126   0.94266267 
   32300     31.35314   -1046.0971    1404.0158   -10518.624   -9114.6079   0.94266267 
   32400    31.332399   -1047.2276     1403.087   -10518.136   -9115.0491   0.94266267 
   32500    31.669086   -962.64371    1418.1641   -10524.578   -9106.4136   0.94266267 
   32600    31.685263   -1006.1886    1418.8886   -10542.293   -9123.4043   0.94266267 
   32700     32.11385    -1006.857     1438.081   -10536.615   -9098.5343   0.94266267 
   32800    32.487574   -1046.7065    1454.8166    -10542.81   -9087.9934   0.94266267 
   32900    32.207235   -997.98778    1442.2628   -10558.276   -9116.0127   0.94266267 
   33000     32.03898   -1033.0805    1434.7283   -10532.591   -9097.8624   0.94266267 
   33100    31.936725   -1051.0028    1430.1492    -10550.43   -9120.2804   0.94266267 
   33200    32.056233   -968.92068    1435.5008   -10544.396   -9108.8951   0.94266267 
   33300    31.811705   -950.54708    1424.5507   -10521.871   -9097.3201   0.94266267 
   33400    31.873431   -1026.3353    1427.3149   -10538.433   -9111.1178   0.94266267 
   33500    32.034051   -1026.0223    1434.5075   -10539.143   -9104.6356   0.94266267 
   33600    32.082467   -987.44629    1436.6756   -10511.735   -9075.0596   0.94266267 
   33700    31.954997   -1013.5998    1430.9675   -10524.205   -9093.2371   0.94266267 
   33800    32.143886   -984.48136     1439.426   -10522.257   -9082.8312   0.94266267 
   33900    32.628638   -1043.0471    1461.1336   -10510.433   -9049.2999   0.94266267 
   34000    32.011275    -1032.809    1433.4876   -10509.717   -9076.2292   0.94266267 
   34100    32.098048   -950.65122    1437.3733   -10505.155   -9067.7814   0.94266267 
   34200    32.399615   -932.26771    1450.8778   -10506.354   -9055.4767   0.94266267 
   34300    32.701375   -963.89257    1464.3908   -10492.338   -9027.9475   0.94266267 
   34400    32.937134   -1022.3689    1474.9482   -10510.879   -9035.9308   0.94266267 
   34500    32.811026   -994.74322     1469.301    -10493.92   -9024.6187   0.94266267 
   34600    32.848662   -1069.0044    1470.9864   -10509.034    -9038.048   0.94266267 
   34700    32.956727   -1049.5238    1475.8256   -10507.963   -9032.1376   0.94266267 
   34800    33.032077   -992.13297    1479.1999   -10505.242   -9026.0419   0.94266267 
   34900     32.68982   -929.98403    1463.8733   -10478.355   -9014.4818   0.94266267 
   35000    32.756034   -989.19924    1466.8384   -10495.503    -9028.665   0.94266267 
   35100    32.769073   -1034.7498    1467.4223   -10489.015   -9021.5922   0.94266267 
   35200     33.07193   -944.85063    1480.9845   -10491.988   -9011.0039   0.94266267 
   35300    32.876882   -995.81373    1472.2501   -10472.682   -9000.4315   0.94266267 
   35400    32.615451   -971.62473     1460.543   -10507.073   -9046.5302   0.94266267 
   35500    32.825012   -965.78225    1469.9273     -10500.4    -9030.473   0.94266267 
   35600    32.881661   -987.50442    1472.4641   -10486.669   -9014.2046   0.94266267 
   35700    33.226513    -1003.362    1487.9068   -10487.378   -8999.4713   0.94266267 
   35800     33.64609   -956.92205    1506.6958   -10484.281   -8977.5852   0.94266267 
   35900    33.612326   -1093.0286    1505.1838   -10473.021   -8967.8374   0.94266267 
   36000    33.364507   -1001.2223    1494.0863   -10480.165   -8986.0783   0.94266267 
   36100    33.589699   -930.70129    1504.1705   -10465.935   -8961.7649   0.94266267 
   36200    33.653428   -1013.3643    1507.0244   -10464.246   -8957.2217   0.94266267 
   36300    33.437324   -998.01478    1497.3471   -10470.828   -8973.4811   0.94266267 
   36400    33.390467   -1038.8536    1495.2488   -10462.755   -8967.5058   0.94266267 
   36500    33.451726   -1002.1644     1497.992    -10470.47   -8972.4781   0.94266267 
   36600    33.367585   -898.59854    1494.2241   -10458.281   -8964.0565   0.94266267 
   36700    34.084821   -983.37267    1526.3425   -10464.861   -8938.5188   0.94266267 
   36800    33.607132   -947.99861    1504.9512   -10457.242   -8952.2912   0.94266267 
   36900    33.613606    -948.4521    1505.2411    -10453.64   -8948.3992   0.94266267 
   37000    33.644941   -957.07177    1506.6443   -10452.941   -8946.2969   0.94266267 
   37100    33.996667   -995.85912    1522.3949   -10470.197   -8947.8018   0.94266267 
   37200     33.85859   -1021.4094    1516.2117   -10445.431   -8929.2191   0.94266267 
   37300    34.190032   -971.16147    1531.0539   -10474.914   -8943.8598   0.94266267 
   37400    33.784025   -900.10891    1512.8726   -10451.677   -8938.8042   0.94266267 
   37500     34.19078    -903.4182    1531.0874   -10442.839   -8911.7511   0.94266267 
   37600    33.973707   -951.38535    1521.3667   -10440.936   -8919.5692   0.94266267 
   37700    33.984652   -949.27319    1521.8568   -10447.508   -8925.6509   0.94266267 
   37800    33.736553   -947.29779    1510.7468   -10457.919   -8947.1721   0.94266267 
   37900    34.034851   -918.85864    1524.1047   -10448.226   -8924.1217   0.94266267 
   38000    33.979142   -940.10474    1521.6101   -10440.461   -8918.8505   0.94266267 
   38100    34.434995   -878.44213    1542.0235   -10441.275   -8899.2516   0.94266267 
   38200     34.16624   -943.33372    1529.9885    -10453.88   -8923.8911   0.94266267 
   38300    33.850623   -943.22796    1515.8549   -10438.097   -8922.2417   0.94266267 
   38400    34.523184   -984.69719    1545.9727   -10446.596   -8900.6229   0.94266267 
   38500    34.322017   -991.38853    1536.9643     -10419.9   -8882.9358   0.94266267 
   38600    34.821927   -943.93768    1559.3506   -10433.299   -8873.9487   0.94266267 
   38700    34.670519   -909.18232    1552.5704   -10403.149   -8850.5786   0.94266267 
   38800    34.862017   -969.85025    1561.1459   -10442.456   -8881.3105   0.94266267 
   38900    34.770619   -970.61235     1557.053   -10407.752   -8850.6995   0.94266267 
   39000    34.133648    -960.4779     1528.529   -10431.745   -8903.2161   0.94266267 
   39100    34.609231   -940.39153    1549.8259   -10443.035   -8893.2092   0.94266267 
   39200    34.854097   -928.63741    1560.7912   -10426.596   -8865.8048   0.94266267 
   39300    34.905214   -994.58212    1563.0802   -10422.675    -8859.595   0.94266267 
   39400    34.653166   -961.14828    1551.7933   -10424.105   -8872.3121   0.94266267 
   39500    35.064396   -909.67184    1570.2085   -10412.536   -8842.3276   0.94266267 
   39600    34.963221   -968.61884    1565.6779   -10439.223   -8873.5446   0.94266267 
   39700    35.136897   -989.30464    1573.4552    -10412.01   -8838.5547   0.94266267 
   39800    34.882166   -951.65691    1562.0482   -10397.316   -8835.2675   0.94266267 
   39900    35.202721   -949.16126    1576.4028   -10406.236   -8829.8334   0.94266267 
   40000    35.089725    -1019.488    1571.3428   -10427.985   -8856.6418   0.94266267 
   40100    34.942143     -921.241    1564.7339   -10391.644   -8826.9098   0.94266267 
   40200    35.519927   -876.28277    1590.6075   -10397.221   -8806.6139   0.94266267 
   40300     35.17217   -1025.6876    1575.0347   -10408.228    -8833.193   0.94266267 
   40400    35.513401   -969.95452    1590.3153   -10388.828   -8798.5122   0.94266267 
   40500    34.905136   -895.88918    1563.0768   -10400.522   -8837.4451   0.94266267 
   40600    35.672979   -876.39368    1597.4613   -10418.492   -8821.0305   0.94266267 
   40700    35.247014   -906.20994    1578.3863   -10400.523   -8822.1367   0.94266267 
   40800    35.450253   -853.12705    1587.4875   -10404.606   -8817.1189   0.94266267 
   40900    35.415577   -992.78004    1585.9346   -10396.072   -8810.1375   0.94266267 
   41000    35.596813   -1003.9599    1594.0506   -10398.953   -8804.9024   0.94266267 
   41100    35.034344   -947.48193    1568.8628   -10396.071   -8827.2079   0.94266267 
   41200     35.58812   -902.27446    1593.6612    -10380.07   -8786.4089   0.94266267 
   41300    35.622913   -913.32186    1595.2193   -10407.224   -8812.0045   0.94266267 
   41400    35.686437   -924.56462    1598.0639   -10394.975   -8796.9111   0.94266267 
   41500    35.891531   -973.73977    1607.2482   -10389.205   -8781.9571   0.94266267 
   41600    36.316953   -940.20463    1626.2989   -10372.207   -8745.9084   0.94266267 
   41700    35.748295   -986.94733     1600.834   -10381.588    -8780.754   0.94266267 
   41800    36.447685   -990.69765    1632.1532   -10373.817    -8741.664   0.94266267 
   41900    36.078332   -986.80894    1615.6133   -10372.981   -8757.3673   0.94266267 
   42000    36.173312   -903.41303    1619.8666   -10383.885   -8764.0186   0.94266267 
   42100      35.7057   -925.51473    1598.9266   -10389.775   -8790.8484   0.94266267 
   42200    35.735746   -927.96127     1600.272    -10358.06   -8757.7882   0.94266267 
   42300    36.109042   -1012.6571    1616.9885   -10358.773   -8741.7842   0.94266267 
   42400    35.903764   -1004.8133     1607.796   -10363.677    -8755.881   0.94266267 
   42500    36.236833   -922.61383    1622.7111    -10362.37   -8739.6589   0.94266267 
   42600    35.994235   -943.58312    1611.8474   -10367.331   -8755.4833   0.94266267 
   42700     36.06387   -859.13943    1614.9657   -10379.371   -8764.4051   0.94266267 
   42800    35.955286   -974.94359    1610.1032    -10374.66   -8764.5572   0.94266267 
   42900    36.098788   -902.27806    1616.5294   -10356.937   -8740.4073   0.94266267 
   43000    36.354556   -941.94013    1627.9828   -10360.915   -8732.9318   0.94266267 
   43100    35.970191   -903.41365    1610.7707   -10334.921   -8724.1505   0.94266267 
   43200    36.012144   -997.96396    1612.6493   -10345.836   -8733.1864   0.94266267 
   43300     35.88345   -892.09132    1606.8864   -10353.896   -8747.0098   0.94266267 
   43400    36.488431   -880.47387    1633.9778   -10357.556   -8723.5777   0.94266267 
   43500    36.565833   -882.01784     1637.444   -10365.236   -8727.7917   0.94266267 
   43600    36.717576    -943.7769    1644.2391   -10363.817   -8719.5781   0.94266267 
   43700    36.536105   -899.17346    1636.1127   -10360.182    -8724.069   0.94266267 
   43800    36.597796   -911.42077    1638.8753   -10344.561   -8705.6856   0.94266267 
   43900    36.923422   -931.65217     1653.457    -10339.96   -8686.5033   0.94266267 
   44000    37.268034   -958.76891     1668.889   -10356.781   -8687.8921   0.94266267 
   44100    36.517073    -952.2673    1635.2604   -10357.068   -8721.8074   0.94266267 
   44200    37.206393   -955.13451    1666.1287   -10322.536   -8656.4077   0.94266267 
   44300    37.270615   -914.75151    1669.0046    -10329.82   -8660.8152   0.94266267 
   44400    36.651779    -845.4807    1641.2927   -10357.058    -8715.765   0.94266267 
   44500    36.899092   -949.28343    1652.3675   -10347.309   -8694.9418   0.94266267 
   44600    36.854627   -867.22905    1650.3763   -10348.586   -8698.2094   0.94266267 
   44700    37.332014   -958.93871    1671.7541   -10330.049   -8658.2953   0.94266267 
   44800    36.762334   -966.02835    1646.2434   -10323.548   -8677.3047   0.94266267 
   44900    37.480851   -889.17933    1678.4191   -10328.117   -8649.6976   0.94266267 
   45000    37.335647   -946.29184    1671.9167   -10347.917   -8675.9999   0.94266267 
   45100    37.284703   -1002.0396    1669.6354   -10364.414   -8694.7787   0.94266267 
   45200    37.083572   -915.68199    1660.6286   -10336.147   -8675.5182   0.94266267 
   45300    38.006689   -914.25579    1701.9665   -10298.681   -8596.7149   0.94266267 
   45400    36.886872   -917.40018    1651.8203   -10322.202   -8670.3821   0.94266267 
   45500    37.144067   -990.41551    1663.3377   -10326.199   -8662.8615   0.94266267 
   45600    36.656034   -1115.9056    1641.4832   -10324.708   -8683.2246   0.94266267 
   45700    37.119325   -938.75341    1662.2297    -10318.32   -8656.0904   0.94266267 
   45800    37.742156   -906.17645    1690.1205   -10301.746   -8611.6256   0.94266267 
   45900     37.75262    -991.6736    1690.5891   -10324.108   -8633.5194   0.94266267 
   46000    37.828686   -918.97978    1693.9954   -10314.004   -8620.0082   0.94266267 
   46100    37.662023   -931.92625    1686.5321   -10297.735   -8611.2027   0.94266267 
   46200    37.886446   -936.98573    1696.5819   -10298.349   -8601.7672   0.94266267 
   46300    38.261621   -918.83632    1713.3825   -10304.755   -8591.3724   0.94266267 
   46400    37.681723    -910.3199    1687.4143   -10287.707    -8600.293   0.94266267 
   46500    38.145259   -932.82244    1708.1718   -10295.838   -8587.6661   0.94266267 
   46600     37.59467   -854.29706     1683.516    -10299.46   -8615.9435   0.94266267 
   46700    37.853445   -931.53185    1695.1041   -10288.666   -8593.5624   0.94266267 
   46800     37.95862   -994.10065    1699.8139   -10303.739    -8603.925   0.94266267 
   46900    38.083907   -954.84683    1705.4244    -10263.63   -8558.2059   0.94266267 
   47000    37.664066   -927.80667    1686.6236   -10272.202   -8585.5784   0.94266267 
   47100    37.745233   -909.81333    1690.2583   -10264.251   -8573.9924   0.94266267 
   47200    38.317514   -989.24508    1715.8854    -10291.69   -8575.8046   0.94266267 
   47300    38.163789   -911.54644    1709.0015   -10289.831   -8580.8293   0.94266267 
   47400    38.039743   -875.39169    1703.4467   -10273.747   -8570.3004   0.94266267 
   47500    38.104614   -842.24624    1706.3516   -10296.752   -8590.4003   0.94266267 
   47600    37.850769   -880.20673    1694.9843   -10252.676   -8557.6917   0.94266267 
   47700    38.098377   -907.62943    1706.0724   -10264.033   -8557.9602   0.94266267 
   47800    38.031847   -846.45561    1703.0931   -10275.551    -8572.458   0.94266267 
   47900    38.337846   -874.71596     1716.796   -10272.779   -8555.9829   0.94266267 
   48000    37.860734   -884.41796    1695.4305   -10269.463   -8574.0325   0.94266267 
   48100    38.158327   -931.44284     1708.757   -10291.089   -8582.3317   0.94266267 
   48200    38.092292   -925.88943    1705.7998    -10275.27   -8569.4698   0.94266267 
   48300     38.10159   -937.77714    1706.2162   -10266.928   -8560.7122   0.94266267 
   48400     38.19644   -884.92887    1710.4637   -10245.671   -8535.2074   0.94266267 
   48500    38.816723   -901.92777    1738.2404   -10251.856    -8513.616   0.94266267 
   48600    38.645811    -938.2939    1730.5868    -10254.78   -8524.1932   0.94266267 
   48700    38.916746   -858.91359    1742.7195   -10272.609   -8529.8891   0.94266267 
   48800    38.270054   -878.14577    1713.7602   -10279.205   -8565.4445   0.94266267 
   48900    38.623393   -849.43613    1729.5829    -10281.57   -8551.9867   0.94266267 
   49000    38.288154   -859.26673    1714.5707   -10280.502   -8565.9313   0.94266267 
   49100    38.895888   -899.25347    1741.7854   -10285.755   -8543.9695   0.94266267 
   49200    38.866813   -851.31733    1740.4835   -10272.538   -8532.0545   0.94266267 
   49300    39.539333   -878.58715    1770.5994   -10311.691   -8541.0915   0.94266267 
   49400     39.25832   -887.10189    1758.0154    -10238.53   -8480.5142   0.94266267 
   49500    39.424058   -936.29814    1765.4373   -10231.477   -8466.0393   0.94266267 
   49600     39.52867   -831.96408    1770.1219   -10241.639   -8471.5174   0.94266267 
   49700    39.368596   -877.75329    1762.9537   -10241.421   -8478.4676   0.94266267 
   49800    39.305181   -873.50541    1760.1139   -10251.405    -8491.291   0.94266267 
   49900    39.304474   -868.61891    1760.0822   -10260.007   -8499.9247   0.94266267 
   50000    39.502328   -862.71772    1768.9423    -10238.76   -8469.8173   0.94266267 
   50100    39.503272   -906.29906    1768.9846   -10261.479   -8492.4947   0.94266267 
   50200    39.147728   -893.71941     1753.063   -10248.214   -8495.1515   0.94266267 
   50300    39.512827   -916.15462    1769.4124    -10257.25   -8487.8373   0.94266267 
   50400    39.676117   -916.14682    1776.7247   -10246.429   -8469.7044   0.94266267 
   50500    39.234992    -846.4379    1756.9708   -10231.232   -8474.2612   0.94266267 
   50600    39.475779   -899.33268    1767.7534   -10233.415   -8465.6611   0.94266267 
   50700    39.582761   -890.97889    1772.5441   -10226.906    -8454.362   0.94266267 
   50800    39.202537   -824.82274    1755.5174   -10229.151   -8473.6335   0.94266267 
   50900    39.162844    -923.8519    1753.7399   -10223.552   -8469.8121   0.94266267 
   51000    39.682291   -847.72318    1777.0012   -10263.446   -8486.4448   0.94266267 
   51100    38.847929   -893.64416    1739.6378   -10226.331   -8486.6936   0.94266267 
   51200    39.922451   -942.36171    1787.7557   -10220.474    -8432.718   0.94266267 
   51300    39.978086   -803.64589     1790.247   -10220.629   -8430.3819   0.94266267 
   51400    40.395658   -901.40416    1808.9462   -10217.979   -8409.0328   0.94266267 
   51500    39.945097   -867.57783    1788.7698   -10228.844   -8440.0743   0.94266267 
   51600    39.884521   -842.92747    1786.0571   -10223.508    -8437.451   0.94266267 
   51700    39.394685   -841.57874    1764.1219   -10207.155   -8443.0333   0.94266267 
   51800    39.656677   -848.70142    1775.8541   -10212.843   -8436.9892   0.94266267 
   51900    40.069186   -795.07322    1794.3266   -10175.603   -8381.2765   0.94266267 
   52000     39.91261   -818.41833     1787.315   -10200.432   -8413.1169   0.94266267 
   52100    40.638825   -872.64408    1819.8354   -10196.391   -8376.5551   0.94266267 
   52200    40.320274   -839.39273    1805.5705   -10213.747   -8408.1762   0.94266267 
   52300    39.486876   -844.13122    1768.2503   -10206.433   -8438.1831   0.94266267 
   52400    40.192394    -789.2924    1799.8439    -10218.16   -8418.3165   0.94266267 
   52500    40.383783   -803.12096    1808.4144   -10204.408   -8395.9937   0.94266267 
   52600    40.337312   -868.43686    1806.3335   -10216.152   -8409.8184   0.94266267 
   52700    40.406236   -835.87697    1809.4199   -10192.567   -8383.1471   0.94266267 
   52800    40.437137   -874.63013    1810.8037   -10209.234   -8398.4301   0.94266267 
   52900     40.46688   -836.70467    1812.1356   -10203.944   -8391.8083   0.94266267 
   53000    40.130471   -839.60148    1797.0709   -10192.418   -8395.3466   0.94266267 
   53100    40.634816   -889.87803    1819.6559   -10207.676   -8388.0202   0.94266267 
   53200    40.343094   -874.19989    1806.5924    -10172.93   -8366.3378   0.94266267 
   53300    40.058765   -855.76554    1793.8599   -10200.146   -8406.2863   0.94266267 
   53400    40.556174   -821.87151    1816.1342   -10189.258   -8373.1237   0.94266267 
   53500    40.538638   -875.81063     1815.349   -10210.861   -8395.5123   0.94266267 
   53600    40.852605   -828.70046    1829.4086   -10185.461   -8356.0525   0.94266267 
   53700    40.911402   -814.51664    1832.0416   -10191.563   -8359.5217   0.94266267 
   53800    40.873813   -856.81585    1830.3583   -10183.072   -8352.7132   0.94266267 
   53900    41.318918   -826.91762    1850.2905   -10144.327   -8294.0362   0.94266267 
   54000    41.283668   -900.98471    1848.7119   -10183.969   -8335.2572   0.94266267 
   54100    40.638395   -838.11718    1819.8161   -10177.572   -8357.7556   0.94266267 
   54200    40.565221   -773.24894    1816.5394   -10161.252   -8344.7123   0.94266267 
   54300    40.851253   -813.64052    1829.3481   -10197.048   -8367.6995   0.94266267 
   54400    40.394238   -842.44801    1808.8826   -10159.556    -8350.673   0.94266267 
   54500     41.59333   -922.13988    1862.5788   -10177.529   -8314.9503   0.94266267 
   54600    41.018056   -856.27433    1836.8176   -10168.659   -8331.8414   0.94266267 
   54700    41.242922   -895.70472    1846.8873   -10182.874   -8335.9871   0.94266267 
   54800    40.985268   -892.07269    1835.3494   -10169.634   -8334.2849   0.94266267 
   54900    41.023295   -807.54092    1837.0523   -10168.635    -8331.583   0.94266267 
   55000    41.604139   -847.21574    1863.0629   -10180.154   -8317.0907   0.94266267 
   55100    40.930721   -945.79176    1832.9067   -10173.372   -8340.4648   0.94266267 
   55200    41.074423   -888.92925    1839.3418   -10138.868   -8299.5261   0.94266267 
   55300    40.763338   -816.72605    1825.4112    -10163.03   -8337.6185   0.94266267 
   55400    42.061256   -866.28256    1883.5329   -10151.473   -8267.9399   0.94266267 
   55500    41.486188   -818.00829    1857.7809   -10141.121   -8283.3397   0.94266267 
   55600    41.807277   -901.19901    1872.1595   -10165.331   -8293.1718   0.94266267 
   55700    41.625247   -809.20428    1864.0081   -10146.241   -8282.2331   0.94266267 
   55800    41.650289   -939.95396    1865.1295   -10140.257   -8275.1278   0.94266267 
   55900    42.046761   -819.67943    1882.8838   -10150.064   -8267.1806   0.94266267 
   56000    41.556628   -782.94208    1860.9353   -10171.878   -8310.9428   0.94266267 
   56100    41.892421   -886.42857    1875.9723    -10171.89   -8295.9172   0.94266267 
   56200    41.596297   -812.47293    1862.7117   -10144.642   -8281.9308   0.94266267 
   56300    41.397491   -849.11167     1853.809    -10155.91   -8302.1013   0.94266267 
   56400    41.757202   -777.87102    1869.9171   -10149.069   -8279.1518   0.94266267 
   56500    41.482967   -808.20417    1857.6367   -10134.334   -8276.6975   0.94266267 
   56600    41.540015   -826.01065    1860.1913   -10150.394   -8290.2027   0.94266267 
   56700    41.585892   -878.22136    1862.2458   -10151.011   -8288.7654   0.94266267 
   56800    42.337788   -931.77155    1895.9162   -10138.158   -8242.2419   0.94266267 
   56900    41.481312   -839.23646    1857.5626   -10144.079   -8286.5165   0.94266267 
   57000    42.334096   -793.60163    1895.7509   -10157.181   -8261.4302   0.94266267 
   57100    42.110752   -859.20585    1885.7493   -10123.268    -8237.519   0.94266267 
   57200    42.037593   -909.51348    1882.4732   -10154.212   -8271.7387   0.94266267 
   57300    42.704207   -819.38577    1912.3247   -10108.227   -8195.9026   0.94266267 
   57400     42.14361   -774.35974    1887.2208   -10148.993    -8261.772   0.94266267 
   57500    42.343815   -797.02419    1896.1861   -10125.222   -8229.0358   0.94266267 
   57600    42.187427   -825.84457    1889.1829   -10133.075   -8243.8926   0.94266267 
   57700    42.726387   -759.88917    1913.3179   -10118.441   -8205.1233   0.94266267 
   57800    42.471968    -875.4234    1901.9249   -10128.241   -8226.3162   0.94266267 
   57900      42.7512   -782.67219    1914.4291   -10114.271   -8199.8423   0.94266267 
   58000    42.313119   -831.55641    1894.8115   -10140.388   -8245.5763   0.94266267 
   58100    42.134533   -846.67571    1886.8143   -10109.217   -8222.4024   0.94266267 
   58200    42.393129   -908.77237    1898.3944    -10119.05   -8220.6551   0.94266267 
   58300     42.21022   -897.76238    1890.2036   -10142.863   -8252.6594   0.94266267 
   58400     42.24224   -892.99979    1891.6375   -10105.289   -8213.6516   0.94266267 
   58500    42.277436   -836.82962    1893.2136   -10116.639   -8223.4252   0.94266267 
   58600     42.86074   -861.62786    1919.3343   -10121.341   -8202.0065   0.94266267 
   58700    42.535044   -866.69572    1904.7494   -10116.014   -8211.2643   0.94266267 
   58800    43.080521   -742.21146    1929.1763   -10111.859   -8182.6826   0.94266267 
   58900    42.416921   -845.44845    1899.4598   -10087.068   -8187.6085   0.94266267 
   59000    43.230432   -863.91175    1935.8894       -10102   -8166.1108   0.94266267 
   59100    43.144057   -857.69956    1932.0215   -10112.678   -8180.6566   0.94266267 
   59200    43.627584   -818.18003    1953.6742   -10106.907   -8153.2327   0.94266267 
   59300     42.94413    -833.3577    1923.0686   -10097.843   -8174.7744   0.94266267 
   59400    43.198634   -914.13723    1934.4655   -10089.034    -8154.569   0.94266267 
   59500    43.022954   -882.13068    1926.5984   -10079.556   -8152.9575   0.94266267 
   59600    43.433241   -797.07579    1944.9714   -10061.589   -8116.6177   0.94266267 
   59700    43.128244   -812.93276    1931.3134   -10080.948   -8149.6345   0.94266267 
   59800    43.095587   -840.77678    1929.8509   -10080.483   -8150.6318   0.94266267 
   59900    43.303516   -787.95623    1939.1622   -10106.441   -8167.2791   0.94266267 
   60000     43.59566   -818.85468    1952.2446   -10071.408   -8119.1632   0.94266267 
   60100     43.31322   -818.30251    1939.5967    -10081.24   -8141.6436   0.94266267 
   60200    43.139091   -840.23928    1931.7991   -10056.279   -8124.4795   0.94266267 
   60300    43.294522   -804.92187    1938.7594   -10081.876    -8143.117   0.94266267 
   60400    43.113471   -865.22813    1930.6518    -10080.32   -8149.6677   0.94266267 
   60500    42.779082   -800.86465    1915.6776   -10084.021   -8168.3433   0.94266267 
   60600    43.042026   -877.20323    1927.4525   -10095.306   -8167.8531   0.94266267 
   60700    43.275059   -798.57286    1937.8879   -10058.904   -8121.0166   0.94266267 
   60800    43.915124   -746.76649    1966.5504   -10079.898   -8113.3476   0.94266267 
   60900    43.840927   -871.56653    1963.2278   -10071.711   -8108.4834   0.94266267 
   61000    43.636472    -821.5662    1954.0722   -10073.108   -8119.0357   0.94266267 
   61100     43.88317   -829.07531    1965.1195   -10081.254   -8116.1346   0.94266267 
   61200    43.324879   -870.57699    1940.1188   -10074.281   -8134.1624   0.94266267 
   61300    43.522484   -874.65067    1948.9677   -10070.428   -8121.4604   0.94266267 
   61400      44.0763   -825.08935     1973.768   -10058.597   -8084.8291   0.94266267 
   61500    43.952109   -772.26857    1968.2066   -10063.232    -8095.025   0.94266267 
   61600    43.199739   -827.95923    1934.5149   -10037.525   -8103.0104   0.94266267 
   61700    44.082449   -852.65756    1974.0433   -10058.831   -8084.7881   0.94266267 
   61800    43.924563   -837.84864    1966.9731   -10079.224   -8112.2512   0.94266267 
   61900    43.898315   -850.17736    1965.7977   -10058.093   -8092.2953   0.94266267 
   62000    44.179107   -831.87412    1978.3717   -10033.935   -8055.5635   0.94266267 
   62100    44.008266   -768.61549    1970.7213   -10050.653   -8079.9319   0.94266267 
   62200    43.876346   -795.08378    1964.8139   -10045.821   -8081.0072   0.94266267 
   62300    43.782094   -814.56845    1960.5932   -10015.271   -8054.6783   0.94266267 
   62400    44.869501   -774.58453    2009.2881   -10035.716   -8026.4275   0.94266267 
   62500    43.861387   -782.36681     1964.144   -10049.885   -8085.7408   0.94266267 
   62600    44.120045   -864.48614    1975.7269   -10063.715   -8087.9879   0.94266267 
   62700    44.541121   -749.41972     1994.583   -10047.612   -8053.0289   0.94266267 
   62800    44.029365    -793.4099    1971.6662   -10054.247    -8082.581   0.94266267 
   62900     44.27335   -820.92576     1982.592   -10060.742   -8078.1497   0.94266267 
   63000    43.937751   -848.63924    1967.5637   -10035.031   -8067.4677   0.94266267 
   63100    44.582078   -869.48854    1996.4171   -10028.293    -8031.876   0.94266267 
   63200    44.499588   -842.93858    1992.7231   -10051.398    -8058.675   0.94266267 
   63300     44.28537   -829.62415    1983.1303   -10030.638   -8047.5082   0.94266267 
   63400     43.60821   -805.26588    1952.8066   -10008.175   -8055.3681   0.94266267 
   63500    44.816794   -736.72752    2006.9278   -10059.615   -8052.6868   0.94266267 
   63600    44.481768   -757.75716    1991.9251   -10032.422   -8040.4973   0.94266267 
   63700    44.991642   -757.19129    2014.7577   -10039.499   -8024.7413   0.94266267 
   63800    44.503355   -792.59444    1992.8918   -10019.936   -8027.0443   0.94266267 
   63900    44.731868   -914.98805    2003.1248   -10030.274    -8027.149   0.94266267 
   64000    44.521691   -913.28327    1993.7129   -9997.7282   -8004.0154   0.94266267 
   64100    45.008878   -847.76156    2015.5295   -10026.638    -8011.109   0.94266267 
   64200    44.483235   -793.95775    1991.9908   -10023.911   -8031.9198   0.94266267 
   64300     44.62366   -778.43983    1998.2791    -10039.79   -8041.5109   0.94266267 
   64400    45.437812   -947.85876    2034.7374   -10021.826   -7987.0889   0.94266267 
   64500    45.109623   -766.40269    2020.0409   -10012.809   -7992.7685   0.94266267 
   64600    45.332529   -858.54536    2030.0228   -10018.877   -7988.8544   0.94266267 
   64700    44.807789   -804.35894    2006.5246   -10010.326   -8003.8011   0.94266267 
   64800     45.59093    -758.8912    2041.5942   -10021.602   -7980.0076   0.94266267 
   64900    44.676115   -850.32367    2000.6281   -10008.769   -8008.1406   0.94266267 
   65000    45.018044   -758.92323    2015.9399    -10003.67   -7987.7297   0.94266267 
   65100    45.016497   -745.15718    2015.8707   -10008.084   -7992.2136   0.94266267 
   65200    45.608116    -753.7996    2042.3638   -10019.684   -7977.3207   0.94266267 
   65300    44.842162   -755.34341    2008.0638   -10014.281   -8006.2172   0.94266267 
   65400    45.298013   -729.53681    2028.4771   -9971.2172     -7942.74   0.94266267 
   65500    45.670353   -777.28666    2045.1508   -10035.922   -7990.7715   0.94266267 
   65600    44.679982   -718.97337    2000.8013   -10028.031   -8027.2298   0.94266267 
   65700    45.653882   -766.26665    2044.4132   -10013.279    -7968.866   0.94266267 
   65800    45.473033    -667.8855    2036.3147   -9977.6146   -7941.2999   0.94266267 
   65900    45.170542   -742.11086    2022.7689   -9998.8796   -7976.1107   0.94266267 
   66000    45.377917   -854.09101    2032.0553   -9990.3496   -7958.2942   0.94266267 
   66100    44.645821   -815.44093    1999.2715   -9995.9386   -7996.6671   0.94266267 
   66200    45.674121   -855.21452    2045.3195   -9998.9191   -7953.5995   0.94266267 
   66300     45.26913   -805.97592    2027.1837   -10028.929   -8001.7452   0.94266267 
   66400    45.343711    -745.6486    2030.5236   -10001.271   -7970.7471   0.94266267 
   66500    45.656889   -755.29341    2044.5479   -10007.164   -7962.6162   0.94266267 
   66600    45.738967   -815.46465    2048.2234   -9993.7096   -7945.4862   0.94266267 
   66700    45.222254   -763.06353    2025.0846    -10000.81   -7975.7256   0.94266267 
   66800    45.458331   -811.03355    2035.6563   -9999.4862   -7963.8299   0.94266267 
   66900    45.687676   -851.12699    2045.9265   -10002.519   -7956.5922   0.94266267 
   67000    45.729315   -728.45406    2047.7912    -9985.193   -7937.4018   0.94266267 
   67100    45.236833   -740.71049    2025.7375   -10028.417   -8002.6792   0.94266267 
   67200    45.508542    -793.3299    2037.9048     -10027.5   -7989.5951   0.94266267 
   67300    45.471268   -763.96096    2036.2356    -9996.664   -7960.4284   0.94266267 
   67400    46.230087   -767.06215    2070.2161   -9994.3951    -7924.179   0.94266267 
   67500    46.571386    -796.1127    2085.4997   -10043.674   -7958.1744   0.94266267 
   67600     45.82903   -751.91564    2052.2565   -9997.3968   -7945.1403   0.94266267 
   67700    45.930588   -786.75465    2056.8043   -9983.7224   -7926.9181   0.94266267 
   67800    46.151257   -819.61464     2066.686   -9961.4967   -7894.8106   0.94266267 
   67900    45.833398    -716.8995    2052.4521   -9969.5171   -7917.0651   0.94266267 
   68000    46.247433    -810.5709    2070.9928   -9989.2352   -7918.2424   0.94266267 
   68100     46.70654   -833.53683     2091.552   -9975.4528   -7883.9008   0.94266267 
   68200    45.700984   -810.27475    2046.5225   -9958.8114   -7912.2889   0.94266267 
   68300     46.32407   -750.38409    2074.4247   -9981.0511   -7906.6264   0.94266267 
   68400    45.611843   -811.69309    2042.5307   -9967.4812   -7924.9505   0.94266267 
   68500    46.268808   -815.65713      2071.95   -9939.5442   -7867.5942   0.94266267 
   68600    46.376231   -808.40397    2076.7605   -9975.2105   -7898.4499   0.94266267 
   68700    47.110861   -797.43196    2109.6578   -9981.7954   -7872.1377   0.94266267 
   68800    46.834281    -794.1547    2097.2723   -9941.3388   -7844.0665   0.94266267 
   68900    46.662039   -714.46149    2089.5592    -9970.095   -7880.5358   0.94266267 
   69000    46.820133   -745.07449    2096.6387   -9954.9949   -7858.3561   0.94266267 
   69100    46.707353   -777.07838    2091.5884   -9961.5171   -7869.9287   0.94266267 
   69200    47.935573   -833.92773     2146.589   -9930.9931   -7784.4041   0.94266267 
   69300    46.432923   -834.45987    2079.2992   -9957.9067   -7878.6074   0.94266267 
   69400    46.845594   -800.14141    2097.7789   -9962.2675   -7864.4886   0.94266267 
   69500    46.834271   -792.54776    2097.2719   -9939.4746   -7842.2027   0.94266267 
   69600    46.564916   -682.57437      2085.21   -9964.1143   -7878.9043   0.94266267 
   69700    47.028841   -804.23751    2105.9848   -9962.1016   -7856.1168   0.94266267 
   69800    46.016615   -820.90667    2060.6567   -9951.0333   -7890.3766   0.94266267 
   69900    46.808734   -825.44585    2096.1283   -9936.3227   -7840.1943   0.94266267 
   70000    47.010205   -687.63076    2105.1503   -9958.9361   -7853.7858   0.94266267 
   70100    47.208766   -829.74335     2114.042     -9935.86   -7821.8179   0.94266267 
   70200    47.156384    -858.1601    2111.6963   -9959.1513    -7847.455   0.94266267 
   70300    47.431216   -897.58017    2124.0035   -9965.5871   -7841.5836   0.94266267 
   70400    47.426376   -785.52104    2123.7868   -9916.6191   -7792.8324   0.94266267 
   70500    48.365989   -787.79177    2165.8633   -9935.5337   -7769.6705   0.94266267 
   70600    46.614726    -866.8625    2087.4405   -9900.9645    -7813.524   0.94266267 
   70700      46.9635   -766.71744    2103.0588   -9890.3023   -7787.2435   0.94266267 
   70800    47.556698   -756.29085    2129.6227   -9901.3969   -7771.7742   0.94266267 
   70900    47.796918   -815.42743    2140.3799   -9937.0696   -7796.6897   0.94266267 
   71000    47.773619   -660.60183    2139.3365   -9910.5352   -7771.1986   0.94266267 
   71100    47.122362   -882.94544    2110.1728   -9918.6052   -7808.4324   0.94266267 
   71200    47.329349   -869.55993    2119.4418   -9913.6418      -7794.2   0.94266267 
   71300    47.827363   -931.62015    2141.7432   -9929.7987   -7788.0554   0.94266267 
   71400    47.512895   -898.05562    2127.6612   -9943.5537   -7815.8926   0.94266267 
   71500    46.833944   -943.63426    2097.2573   -9919.6603    -7822.403   0.94266267 
   71600    46.896456    -920.1245    2100.0566    -9902.304   -7802.2475   0.94266267 
   71700    47.288472   -889.17673    2117.6113   -9907.2665   -7789.6552   0.94266267 
   71800    48.048865   -780.11584    2151.6623   -9904.1829   -7752.5206   0.94266267 
   71900    47.979031   -828.74512     2148.535   -9892.7904   -7744.2553   0.94266267 
   72000    47.502949   -801.78945    2127.2158   -9866.8878   -7739.6721   0.94266267 
   72100     48.08296   -830.07014    2153.1891   -9904.9769   -7751.7878   0.94266267 
   72200    47.466053   -781.28972    2125.5635   -9881.8927   -7756.3292   0.94266267 
   72300    47.152325   -804.55577    2111.5146   -9860.4584   -7748.9438   0.94266267 
   72400    48.645506   -805.06246    2178.3803   -9890.9836   -7712.6033   0.94266267 
   72500    47.710728   -771.30698    2136.5202   -9919.6454   -7783.1252   0.94266267 
   72600    47.777191   -721.72616    2139.4965   -9913.6371   -7774.1406   0.94266267 
   72700    47.724263   -789.31805    2137.1264   -9906.5809   -7769.4545   0.94266267 
   72800    48.180417   -729.97726    2157.5532    -9926.404   -7768.8508   0.94266267 
   72900     48.55308   -794.55825    2174.2413   -9885.9096   -7711.6683   0.94266267 
   73000    48.266035    -737.7419    2161.3873   -9904.4305   -7743.0433   0.94266267 
   73100     47.24739   -707.95229    2115.7716   -9915.4969   -7799.7253   0.94266267 
   73200    47.707914   -763.19424    2136.3942   -9891.4298   -7755.0356   0.94266267 
   73300    48.394005   -775.01944    2167.1179    -9882.273   -7715.1551   0.94266267 
   73400    48.677155    -903.6134    2179.7975   -9888.6594   -7708.8619   0.94266267 
   73500    48.099941   -793.91627    2153.9495    -9887.024   -7733.0745   0.94266267 
   73600    48.124776   -792.65487    2155.0616   -9892.0037   -7736.9421   0.94266267 
   73700    48.219366   -721.15266    2159.2974   -9908.6902   -7749.3928   0.94266267 
   73800    47.858983   -765.75268    2143.1592   -9884.6661   -7741.5069   0.94266267 
   73900    48.315981   -823.47905    2163.6239   -9891.8542   -7728.2303   0.94266267 
   74000    48.139828   -800.05833    2155.7357   -9885.4297    -7729.694   0.94266267 
   74100    48.081134   -812.07954    2153.1073   -9869.0826   -7715.9753   0.94266267 
   74200    48.359298   -865.72543    2165.5637   -9896.8122   -7731.2485   0.94266267 
   74300    48.357917    -809.5854    2165.5018   -9898.2127   -7732.7108   0.94266267 
   74400    48.653539   -748.78963      2178.74   -9932.1942   -7753.4542   0.94266267 
   74500    48.413851   -784.53379    2168.0066   -9884.2505   -7716.2439   0.94266267 
   74600     49.07069   -719.82019    2197.4203   -9882.8619   -7685.4416   0.94266267 
   74700    48.474971   -796.48634    2170.7436   -9867.1695    -7696.426   0.94266267 
   74800    47.985795    -643.7468    2148.8379   -9874.1102   -7725.2723   0.94266267 
   74900    48.748331   -873.51588    2182.9848   -9866.2691   -7683.2843   0.94266267 
   75000    49.198277   -819.43682    2203.1337   -9887.5488   -7684.4151   0.94266267 
   75100    48.808301   -869.32153    2185.6703   -9867.2029   -7681.5326   0.94266267 
   75200     48.95174   -654.96171    2192.0937   -9855.5066    -7663.413   0.94266267 
   75300    48.979495   -807.42804    2193.3365   -9851.7729   -7658.4364   0.94266267 
   75400    49.293208   -802.57257    2207.3848   -9854.3005   -7646.9157   0.94266267 
   75500    48.739909   -784.56486    2182.6077   -9871.8198   -7689.2121   0.94266267 
   75600    49.106517   -759.72487    2199.0246   -9903.7285   -7704.7038   0.94266267 
   75700    49.204785   -758.81343    2203.4252   -9881.3717   -7677.9466   0.94266267 
   75800    49.070301   -894.46498    2197.4029   -9861.6718    -7664.269   0.94266267 
   75900    48.291316   -833.03916    2162.5194   -9857.2028   -7694.6834   0.94266267 
   76000    49.436643   -901.71348     2213.808   -9851.4025   -7637.5945   0.94266267 
   76100    49.721857   -794.02708      2226.58   -9867.5689   -7640.9889   0.94266267 
   76200    49.017428   -712.04877    2195.0352    -9875.535   -7680.4998   0.94266267 
   76300    49.424657   -783.62722    2213.2712   -9871.2954   -7658.0242   0.94266267 
   76400     48.70824   -699.86503    2181.1895   -9864.5185    -7683.329   0.94266267 
   76500    49.715767   -780.04711    2226.3073   -9852.6702   -7626.3629   0.94266267 
   76600     48.57071   -789.57535    2175.0308   -9898.2013   -7723.1705   0.94266267 
   76700    48.564304    -768.4854     2174.744   -9868.6562   -7693.9122   0.94266267 
   76800    49.499724   -890.41183    2216.6328   -9826.1654   -7609.5326   0.94266267 
   76900    49.880028   -803.87064     2233.663   -9848.0777   -7614.4146   0.94266267 
   77000    49.360869    -743.5606    2210.4147   -9844.5353   -7634.1206   0.94266267 
   77100    49.161093    -847.6044    2201.4686   -9866.5081   -7665.0395   0.94266267 
   77200    49.358357   -735.44185    2210.3022   -9850.5991   -7640.2969   0.94266267 
   77300    49.138149   -891.43816    2200.4412   -9847.2627   -7646.8215   0.94266267 
   77400     49.66659   -873.03258    2224.1051   -9846.7616   -7622.6564   0.94266267 
   77500    49.443522   -781.36776     2214.116   -9841.4773   -7627.3613   0.94266267 
   77600    49.440095   -778.29591    2213.9625    -9855.919   -7641.9565   0.94266267 
   77700    49.404467   -838.98957    2212.3671   -9813.5793   -7601.2122   0.94266267 
   77800     49.81506   -859.03539    2230.7537   -9819.9059   -7589.1522   0.94266267 
   77900    49.920698    -843.3735    2235.4843   -9862.2867   -7626.8024   0.94266267 
   78000    49.981524    -866.4933    2238.2081   -9839.2033   -7600.9953   0.94266267 
   78100    49.826759   -822.38362    2231.2776   -9831.9314   -7600.6538   0.94266267 
   78200    50.033833   -803.22864    2240.5505   -9806.3774   -7565.8269   0.94266267 
   78300    50.114165   -796.07095    2244.1478    -9861.567   -7617.4191   0.94266267 
   78400    50.183228   -736.15159    2247.2406   -9843.3635   -7596.1229   0.94266267 
   78500    50.399996   -710.95864    2256.9476   -9833.5291   -7576.5816   0.94266267 
   78600    49.515323    -880.2784    2217.3313   -9828.8545   -7611.5232   0.94266267 
   78700    49.597023   -745.17695    2220.9899   -9821.9269    -7600.937   0.94266267 
   78800    49.787672   -813.72754    2229.5273   -9819.7948   -7590.2675   0.94266267 
   78900    49.920632    -798.8278    2235.4813   -9824.8638   -7589.3825   0.94266267 
   79000    50.344581   -821.23848     2254.466    -9821.243   -7566.7769   0.94266267 
   79100    49.820485   -662.41261    2230.9966    -9793.774   -7562.7773   0.94266267 
   79200    50.796181   -770.18333     2274.689   -9814.9523   -7540.2633   0.94266267 
   79300    49.886247    -759.8963    2233.9415   -9814.5697   -7580.6282   0.94266267 
   79400    50.192854   -677.58206    2247.6716   -9812.7509   -7565.0793   0.94266267 
   79500    49.580336   -788.25497    2220.2426   -9820.9402   -7600.6976   0.94266267 
   79600    49.767444   -795.35571    2228.6214   -9836.7011   -7608.0796   0.94266267 
   79700    50.347215   -764.36074     2254.584   -9822.5527   -7567.9687   0.94266267 
   79800    50.448647   -769.35878    2259.1262   -9790.7208   -7531.5946   0.94266267 
   79900    49.762593   -806.40949    2228.4042   -9813.8938   -7585.4896   0.94266267 
   80000    51.514593   -829.50298      2306.86   -9796.2958   -7489.4358   0.94266267 
   80100    50.289695   -739.16896    2252.0082   -9815.6368   -7563.6286   0.94266267 
   80200    50.096674   -720.76084    2243.3646   -9818.8319   -7575.4674   0.94266267 
   80300    50.393937   -855.56019    2256.6762   -9786.4394   -7529.7631   0.94266267 
   80400    50.334855   -778.40519    2254.0305   -9785.6537   -7531.6231   0.94266267 
   80500    50.411918   -738.00841    2257.4814   -9800.2523   -7542.7708   0.94266267 
   80600    50.715108   -747.77378    2271.0585   -9802.1727   -7531.1142   0.94266267 
   80700    50.982603   -747.42274    2283.0371   -9793.0652   -7510.0281   0.94266267 
   80800    50.714606   -836.80899     2271.036    -9814.666     -7543.63   0.94266267 
   80900    50.963721   -800.04874    2282.1916   -9806.7109   -7524.5193   0.94266267 
   81000    50.634344   -810.22645    2267.4418   -9802.4056   -7534.9638   0.94266267 
   81100    50.497425   -814.23238    2261.3105    -9763.831   -7502.5204   0.94266267 
   81200    50.543923   -862.42007    2263.3927   -9785.2982   -7521.9055   0.94266267 
   81300    50.603338   -756.52874    2266.0534   -9802.4117   -7536.3583   0.94266267 
   81400    51.039261   -845.70198    2285.5743   -9810.0256   -7524.4513   0.94266267 
   81500    50.586595   -760.49995    2265.3036   -9789.1224   -7523.8188   0.94266267 
   81600     50.80933   -686.02729    2275.2778   -9799.8578     -7524.58   0.94266267 
   81700    50.606265   -748.60137    2266.1844   -9812.1164   -7545.9319   0.94266267 
   81800    51.186542   -709.04818    2292.1697   -9810.9524   -7518.7828   0.94266267 
   81900     51.31053   -804.57972    2297.7219   -9787.4557   -7489.7338   0.94266267 
   82000    51.009041    -773.4986     2284.221   -9781.3794   -7497.1583   0.94266267 
   82100     51.60806   -837.40264    2311.0455   -9785.7643   -7474.7187   0.94266267 
   82200     50.48388   -767.87461     2260.704   -9789.1739     -7528.47   0.94266267 
   82300    51.034799   -863.75811    2285.3745   -9776.5475   -7491.1729   0.94266267 
   82400    51.669571   -709.95175       2313.8   -9772.4709   -7458.6709   0.94266267 
   82500    52.005706   -668.91307    2328.8524   -9817.2535   -7488.4011   0.94266267 
   82600    50.535097    -824.8008    2262.9975   -9743.6224   -7480.6249   0.94266267 
   82700    50.769033   -740.42663    2273.4733   -9732.0887   -7458.6154   0.94266267 
   82800    51.828376    -682.6198    2320.9114   -9735.3748   -7414.4634   0.94266267 
   82900    52.033374   -720.28405    2330.0914   -9768.7671   -7438.6757   0.94266267 
   83000    51.928072    -799.8416    2325.3759    -9691.964   -7366.5881   0.94266267 
   83100    51.157659   -781.65635    2290.8763   -9783.8137   -7492.9374   0.94266267 
   83200     51.38454   -827.36672    2301.0361   -9719.3563   -7418.3201   0.94266267 
   83300    51.420356   -805.94961      2302.64   -9764.3501   -7461.7101   0.94266267 
   83400    51.206881   -777.25498    2293.0804   -9742.4363   -7449.3559   0.94266267 
   83500    51.745972   -785.82439    2317.2213   -9762.1907   -7444.9694   0.94266267 
   83600    51.692589    -905.6827    2314.8308    -9734.139   -7419.3082   0.94266267 
   83700    51.824469   -778.14331    2320.7365   -9742.2828   -7421.5463   0.94266267 
   83800    51.389227   -847.98874     2301.246   -9722.0413   -7420.7953   0.94266267 
   83900    51.989541   -832.15667    2328.1285   -9716.6978   -7388.5693   0.94266267 
   84000    51.771278    -735.5112    2318.3546   -9713.1459   -7394.7914   0.94266267 
   84100    51.521235   -836.06535    2307.1574   -9740.2918   -7433.1344   0.94266267 
   84200    51.634046   -824.68342    2312.2092   -9751.8439   -7439.6347   0.94266267 
   84300    52.204652   -872.80108    2337.7614   -9758.2692   -7420.5079   0.94266267 
   84400    51.831115   -745.27225    2321.0341   -9738.0164   -7416.9823   0.94266267 
   84500     52.28955   -712.27316    2341.5631   -9735.9678   -7394.4046   0.94266267 
   84600    51.636509   -619.41141    2312.3195   -9731.1322   -7418.8126   0.94266267 
   84700    52.916929   -778.61656    2369.6576   -9722.6921   -7353.0345   0.94266267 
   84800    51.311128   -775.77387    2297.7487   -9721.6454   -7423.8967   0.94266267 
   84900    52.205097   -746.61777    2337.7813   -9736.0391   -7398.2578   0.94266267 
   85000    52.402835   -842.12884    2346.6361   -9739.5339   -7392.8977   0.94266267 
   85100    52.258294   -822.55066    2340.1635   -9701.8497   -7361.6862   0.94266267 
   85200    52.395251   -860.22692    2346.2965   -9702.8362   -7356.5396   0.94266267 
   85300    52.709875   -767.89831    2360.3856   -9697.5897   -7337.2041   0.94266267 
   85400    52.712878     -787.106    2360.5201   -9741.0912   -7380.5712   0.94266267 
   85500    52.180775   -792.93255    2336.6921    -9715.534   -7378.8419   0.94266267 
   85600    52.895536   -785.69161    2368.6996   -9735.1449   -7366.4453   0.94266267 
   85700    52.344996   -799.06312    2344.0461   -9698.2765   -7354.2304   0.94266267 
   85800    52.931388   -807.93925    2370.3051   -9740.4251     -7370.12   0.94266267 
   85900    52.036261   -729.00116    2330.2207   -9695.8448   -7365.6241   0.94266267 
[...]
  179300    349.66946   -332.89812    15658.446     5181.056    20839.502   0.94266267 
  179400     348.5302   -318.66926     15607.43    5172.2343    20779.664   0.94266267 
  179500    348.14277   -266.48313     15590.08    5234.6691    20824.749   0.94266267 
  179600    351.36718   -515.72413    15734.471    5254.6186     20989.09   0.94266267 
  179700    351.12279   -282.58123    15723.527    4909.7463    20633.274   0.94266267 
  179800    345.22047   -294.50744    15459.217    5075.6255    20534.843   0.94266267 
  179900    347.98469   -348.22275    15583.001    5128.6586     20711.66   0.94266267 
  180000    351.36899   -266.04842    15734.552     5242.716    20977.268   0.94266267 
  180100    346.86276   -327.12987    15532.761    4998.0013    20530.762   0.94266267 
  180200    347.36276   -480.74877    15555.151    5066.0324    20621.183   0.94266267 
  180300    350.10599   -355.51009    15677.994    5237.0626    20915.057   0.94266267 
  180400    349.36198   -358.42413    15644.677    5225.3902    20870.068   0.94266267 
  180500    348.33916   -414.64942    15598.875    5258.8117    20857.687   0.94266267 
  180600    351.99193   -410.64542    15762.448    5342.4499    21104.898   0.94266267 
  180700    348.59492   -244.98472    15610.328     5441.487    21051.815   0.94266267 
  180800    350.56497   -352.55347    15698.548    5274.1573    20972.705   0.94266267 
  180900     347.1716    -290.8112     15546.59    5317.0998     20863.69   0.94266267 
  181000    347.09313   -338.24522    15543.077     5050.584    20593.661   0.94266267 
  181100    353.99483   -477.92677     15852.14    5150.0504     21002.19   0.94266267 
  181200    352.90127   -425.59886    15803.169    5091.8502    20895.019   0.94266267 
  181300    352.88274   -388.16398    15802.339    4975.6276    20777.967   0.94266267 
  181400    349.00926   -182.76295    15628.882     5168.851    20797.733   0.94266267 
  181500    349.54746   -78.225584    15652.983    5150.7099    20803.693   0.94266267 
  181600     348.6728   -286.92251    15613.815    5014.2714    20628.087   0.94266267 
  181700    348.72609   -366.80419    15616.202     5239.661    20855.863   0.94266267 
  181800     350.0445   -354.91318    15675.241    5292.9038    20968.145   0.94266267 
  181900    352.90585   -313.90309    15803.374    5336.1044    21139.479   0.94266267 
  182000    351.97989   -390.24666    15761.909    5489.3298    21251.239   0.94266267 
  182100     352.9161   -427.23819    15803.833    5244.3337    21048.167   0.94266267 
  182200    354.62087   -238.68714    15880.174    5292.1225    21172.297   0.94266267 
  182300     351.6327   -199.95101    15746.362    5276.3125    21022.674   0.94266267 
  182400    352.40091   -240.57609    15780.763    5269.7172     21050.48   0.94266267 
  182500    349.00921   -337.55392     15628.88    5091.2243    20720.104   0.94266267 
  182600    352.77784   -386.60988    15797.642    5114.3311    20911.973   0.94266267 
  182700    352.72307   -535.09018    15795.189    5057.7493    20852.939   0.94266267 
  182800    352.81182   -380.04885    15799.164    5153.2338    20952.398   0.94266267 
  182900    348.35092   -450.35584    15599.401    5067.1236    20666.525   0.94266267 
  183000    356.45607   -455.00962    15962.356    5134.7126    21097.068   0.94266267 
  183100     356.2339   -101.35349    15952.407    5046.7406    20999.147   0.94266267 
  183200    353.16835   -448.11535    15815.129    5401.8666    21216.996   0.94266267 
  183300    354.59576   -475.26594     15879.05    5277.7965    21156.846   0.94266267 
  183400     349.3672   -478.51169    15644.911    5281.5122    20926.423   0.94266267 
  183500    356.44785   -394.23182    15961.988    5176.6729    21138.661   0.94266267 
  183600    350.07857   -445.26856    15676.767     5159.155    20835.922   0.94266267 
  183700    354.48826   -449.66824    15874.236    5212.9201    21087.156   0.94266267 
  183800    352.53201   -114.54047    15786.633     5326.519    21113.152   0.94266267 
  183900    356.08246   -337.65452    15945.625    5223.3079    21168.933   0.94266267 
  184000    352.83447   -365.88492    15800.178    5310.3849    21110.563   0.94266267 
  184100    354.83172   -254.62984    15889.616    5345.0692    21234.686   0.94266267 
  184200     356.9276   -442.26314    15983.471    5425.0192     21408.49   0.94266267 
  184300    355.08631   -397.02144    15901.017    5320.2184    21221.235   0.94266267 
  184400    349.74057   -408.43561    15661.631    5210.4541    20872.085   0.94266267 
  184500    350.03444   -164.65766    15674.791    5329.3942    21004.185   0.94266267 
  184600    353.15517   -403.29874    15814.539    5157.9998    20972.539   0.94266267 
  184700    352.08415   -510.33131    15766.578     5125.516    20892.094   0.94266267 
  184800    350.58232   -470.84344    15699.325    5250.7886    20950.114   0.94266267 
  184900    349.71371   -376.70088    15660.428    5387.2887    21047.717   0.94266267 
  185000    351.35332   -354.18852    15733.851    5294.5636    21028.414   0.94266267 
  185100    357.48614   -159.73388    16008.483    5420.4309    21428.914   0.94266267 
  185200    354.94457   -105.77005     15894.67     5357.299    21251.969   0.94266267 
  185300    356.33077   -413.57169    15956.745    5407.0162    21363.761   0.94266267 
  185400    356.14362   -309.02523    15948.364    5558.4198    21506.784   0.94266267 
  185500    356.68451   -549.18378    15972.585    5416.1666    21388.752   0.94266267 
  185600    355.82575   -401.20486     15934.13    5316.3233    21250.453   0.94266267 
  185700    356.29969   -387.27869    15955.353    5419.1467      21374.5   0.94266267 
  185800    354.10438   -141.88652    15857.045    5306.2781    21163.323   0.94266267 
  185900    350.22593   -283.65591    15683.366    5617.4586    21300.824   0.94266267 
  186000     355.4944   -300.02272    15919.291    5248.1308    21167.422   0.94266267 
  186100    355.02896   -559.17552    15898.449    5479.5055    21377.954   0.94266267 
  186200    354.23383   -609.24355    15862.842    5430.3973    21293.239   0.94266267 
  186300    355.38517   -555.35859      15914.4    5431.7027    21346.103   0.94266267 
  186400    354.11451   -337.15728    15857.499    5400.6097    21258.109   0.94266267 
  186500    356.29064   -316.35267    15954.948    5518.1918    21473.139   0.94266267 
  186600     358.7886   -456.45212    16066.808    5520.0596    21586.867   0.94266267 
  186700    361.15155   -236.63423    16172.623    5666.0687    21838.691   0.94266267 
  186800    358.29225   -350.45139    16044.581    5607.1105    21651.692   0.94266267 
  186900    356.54903   -578.38122    15966.519    5474.2339    21440.753   0.94266267 
  187000    357.73507   -515.93397     16019.63    5507.3841    21527.014   0.94266267 
  187100    354.16922   -419.99941    15859.949    5592.4444    21452.393   0.94266267 
  187200    355.15831   -195.84311    15904.241    5545.9411    21450.182   0.94266267 
  187300    360.30211   -210.47759    16134.584    5526.4629    21661.047   0.94266267 
  187400    356.19479   -180.34042    15950.655    5511.2001    21461.855   0.94266267 
  187500    359.40887   -196.59244    16094.584     5407.766     21502.35   0.94266267 
  187600     359.0884   -134.96698    16080.233     5546.736    21626.969   0.94266267 
  187700    352.41755   -359.71311    15781.508    5603.5875    21385.095   0.94266267 
  187800    357.25507   -189.77519    15998.136    5562.6728    21560.808   0.94266267 
  187900    358.77141   -279.16098    16066.038    5589.2992    21655.337   0.94266267 
  188000    359.26451     -195.669     16088.12    5389.1838    21477.303   0.94266267 
  188100    357.68483   -382.50659    16017.381      5603.98    21621.361   0.94266267 
  188200     359.7736   -194.47211    16110.917    5843.1014    21954.018   0.94266267 
  188300    357.46632    -372.4523    16007.595    5697.8473    21705.443   0.94266267 
  188400    357.30942    -364.6776    16000.569    5493.8282    21494.397   0.94266267 
  188500    355.53433   -174.86161    15921.079     5446.025    21367.104   0.94266267 
  188600    356.35756   -198.14702    15957.945    5701.6129    21659.557   0.94266267 
  188700    360.41381   -126.73336    16139.586    5641.0712    21780.657   0.94266267 
  188800    359.53569    -496.6232    16100.263    5528.7426    21629.006   0.94266267 
  188900    361.61296   -264.90748    16193.285    5701.3299    21894.615   0.94266267 
  189000    360.03823   -369.81966    16122.767    5654.8901    21777.658   0.94266267 
  189100    355.96114   -340.02241    15940.192    5683.2807    21623.473   0.94266267 
  189200    361.01539   -259.46994    16166.525    5560.0524    21726.577   0.94266267 
  189300    359.24858   -507.42917    16087.406    5487.3817    21574.788   0.94266267 
  189400    360.15884   -421.35782    16128.168    5546.3083    21674.476   0.94266267 
  189500    357.25978   -256.25797    15998.346    5602.7145    21601.061   0.94266267 
  189600     360.8845   -174.27674    16160.664    5539.3523    21700.016   0.94266267 
  189700    363.44804   -444.56229    16275.461    5713.8105    21989.272   0.94266267 
  189800    360.12006    -412.1125    16126.432    5714.3057    21840.737   0.94266267 
  189900    360.29673   -550.80847    16134.343    5629.7301    21764.073   0.94266267 
  190000     352.9083   -339.32295    15803.484    5770.0661     21573.55   0.94266267 
  190100    358.48903   -252.01837    16053.393    5680.4155    21733.808   0.94266267 
  190200    362.56514   -100.99416    16235.924    5518.9082    21754.832   0.94266267 
  190300    357.92554   -409.81353     16028.16     5671.114    21699.274   0.94266267 
  190400    359.63839   -121.62997    16104.862    5522.0991    21626.962   0.94266267 
  190500     361.8652    -302.5655     16204.58    5706.1155    21910.696   0.94266267 
  190600    361.08571   -325.63647    16169.674    5696.5265    21866.201   0.94266267 
  190700    361.61352   -337.17243     16193.31    5564.9572    21758.267   0.94266267 
  190800    363.28887   -495.62989    16268.333     5670.834    21939.167   0.94266267 
  190900    359.95002   -335.96229    16118.817    5570.8581    21689.675   0.94266267 
  191000    358.81246   -154.40144    16067.876     5625.825    21693.701   0.94266267 
  191100     360.0355    -13.17503    16122.645    5539.2551      21661.9   0.94266267 
  191200    355.85514   -130.95948    15935.446    5732.7042     21668.15   0.94266267 
  191300    361.25169   -220.02727    16177.107    5741.7015    21918.809   0.94266267 
  191400    356.75113   -174.73241    15975.569    5811.9345    21787.503   0.94266267 
  191500     359.9047    32.116833    16116.788      5638.84    21755.628   0.94266267 
  191600    359.85104   -314.80535    16114.385    5727.3336    21841.719   0.94266267 
  191700    358.89079   -423.33069    16071.384    5726.9833    21798.367   0.94266267 
  191800    360.72327   -207.99977    16153.444    5865.3768    22018.821   0.94266267 
  191900    356.43338   -488.01083     15961.34    5938.1999    21899.539   0.94266267 
  192000    362.45001   -138.91372    16230.769    5713.4846    21944.253   0.94266267 
  192100    359.87957   -258.38433    16115.663    5910.7617    22026.424   0.94266267 
  192200    359.93142    -427.0799    16117.984     5898.003    22015.987   0.94266267 
  192300    360.44864   -431.38678    16141.146    5677.0647     21818.21   0.94266267 
  192400    359.28692   -312.76035    16089.123     5849.343    21938.466   0.94266267 
  192500    360.13186   -151.15598     16126.96    5509.3715    21636.332   0.94266267 
  192600    358.71295   -364.25642     16063.42    5692.1495     21755.57   0.94266267 
  192700    361.25029   -441.84822    16177.044    5718.2123    21895.257   0.94266267 
  192800     361.0275   -240.84594    16167.068    5657.8162    21824.884   0.94266267 
  192900     364.9375   -69.718942     16342.16    5791.0686    22133.229   0.94266267 
  193000    362.06109    33.095088    16213.352    5764.4967    21977.849   0.94266267 
  193100    362.01064    -19.54876    16211.093    5793.3215    22004.415   0.94266267 
  193200    369.44296   -232.67868    16543.918    5705.7705    22249.689   0.94266267 
  193300    361.82331   -286.16969    16202.705    6051.5459    22254.251   0.94266267 
  193400    363.55552    -339.8776    16280.274     5732.111    22012.385   0.94266267 
  193500    360.55795   -511.74382    16146.041    5823.5045    21969.545   0.94266267 
  193600    363.82915   -523.64243    16292.527    5804.8461    22097.374   0.94266267 
  193700    368.40128   -272.75988    16497.271    6050.8306    22548.101   0.94266267 
  193800    367.31681   -303.54374    16448.707     5837.122    22285.829   0.94266267 
  193900     363.1662   -316.38578     16262.84     5863.665    22126.505   0.94266267 
  194000    363.88415   -344.07437     16294.99    5725.0477    22020.038   0.94266267 
  194100    359.75734   -415.24757    16110.189    5880.9353    21991.124   0.94266267 
  194200     359.6758   -233.89626    16106.538    5925.1453    22031.683   0.94266267 
  194300    360.44157   -101.10716    16140.829    5833.6911     21974.52   0.94266267 
  194400    364.32794   -324.85017    16314.864    5886.4327    22201.296   0.94266267 
  194500    363.31903   -241.77506    16269.684    5807.8493    22077.533   0.94266267 
  194600    364.52001   -174.55663    16323.465    5965.5327    22288.997   0.94266267 
  194700    366.02128    -294.8327    16390.692    5760.4401    22151.133   0.94266267 
  194800    367.63973   -200.05412    16463.168    6039.8221     22502.99   0.94266267 
  194900    366.79397   -438.85297    16425.294    5953.5184    22378.813   0.94266267 
  195000    362.47929   -101.51027     16232.08    5895.9328    22128.013   0.94266267 
  195100    362.02106   -237.18164     16211.56    5835.6748    22047.234   0.94266267 
  195200    359.31044    -281.3271    16090.177      5847.95    21938.127   0.94266267 
  195300     367.0899     -391.974    16438.546    5733.0007    22171.547   0.94266267 
  195400    358.39368   -331.95236    16049.123    5935.7206    21984.844   0.94266267 
  195500    365.59719   -472.40062    16371.702    5876.8115    22248.513   0.94266267 
  195600    364.70566   -104.49084    16331.778    5845.5653    22177.344   0.94266267 
  195700    367.31068   -29.439199    16448.433    5822.8291    22271.262   0.94266267 
  195800     362.3819   -210.90242    16227.719    5846.8779    22074.597   0.94266267 
  195900    361.36929   -127.27692    16182.373    5718.8453    21901.218   0.94266267 
  196000    364.50987   -156.53433     16323.01    5944.1503    22267.161   0.94266267 
  196100    365.93594   -391.16376    16386.871    6013.6086     22400.48   0.94266267 
  196200    368.16247   -432.53839    16486.576    5965.7837     22452.36   0.94266267 
  196300    365.88608   -543.66573    16384.638    6085.1482    22469.786   0.94266267 
  196400     364.4604   -410.27837    16320.795    6088.8102    22409.606   0.94266267 
  196500    361.91667   -233.04936    16206.885    6195.5541    22402.439   0.94266267 
  196600    363.30973   -111.68107    16269.267    6091.5384    22360.806   0.94266267 
  196700    363.42542   -255.29058    16274.448    5972.2162    22246.664   0.94266267 
  196800    364.20157    -333.6735    16309.205    5980.7691    22289.974   0.94266267 
  196900     365.8031   -169.50856    16380.922    6095.3639    22476.286   0.94266267 
  197000    366.52088   -190.79669    16413.065    5996.2878    22409.353   0.94266267 
  197100    364.54734    57.775674    16324.688     6179.213    22503.901   0.94266267 
  197200    367.54163   -150.48536    16458.775    5936.9248      22395.7   0.94266267 
  197300    368.36921   -352.13198    16495.835    5883.9412    22379.776   0.94266267 
  197400     365.5019   -513.59218    16367.434    6081.8525    22449.287   0.94266267 
  197500    367.34554   -276.50767    16449.994    6040.3102    22490.304   0.94266267 
  197600    365.72649   -449.00403    16377.492    5966.3045    22343.796   0.94266267 
  197700    362.56361   -239.15766    16235.856    6152.4022    22388.258   0.94266267 
  197800    370.29675    -403.1875    16582.151    6100.1573    22682.308   0.94266267 
  197900    360.58308   -163.60874    16147.166    6127.1371    22274.303   0.94266267 
  198000    365.66914    -354.4882    16374.924    6144.5515    22519.475   0.94266267 
  198100     363.0172   -280.89855    16256.168    6197.4682    22453.636   0.94266267 
  198200    366.27977   -383.32421    16402.268    6052.4505    22454.719   0.94266267 
  198300    364.59579   -339.29179    16326.858    6147.2657    22474.124   0.94266267 
  198400    367.49119   -367.98814    16456.516    6072.3473    22528.864   0.94266267 
  198500    367.53737   -412.54626    16458.584    6074.3376    22532.922   0.94266267 
  198600    369.86026   -283.30494    16562.605    5993.9484    22556.553   0.94266267 
  198700    369.79853    -415.6866     16559.84    5934.6419    22494.482   0.94266267 
  198800    371.73592   -194.47233    16646.598    5881.3838    22527.982   0.94266267 
  198900    368.24153   -231.18557    16490.117    6125.6665    22615.783   0.94266267 
  199000    360.44694   -259.43069    16141.069    6384.5801     22525.65   0.94266267 
  199100    366.39736   -390.43881    16407.534    6142.0814    22549.615   0.94266267 
  199200    364.87705   -364.84589    16339.453    6038.5505    22378.004   0.94266267 
  199300    368.88277   -253.41997    16518.832    6086.4856    22605.318   0.94266267 
  199400     370.0231   -254.00957    16569.897    6088.3261    22658.223   0.94266267 
  199500    365.95606   -434.50647    16387.772    6224.4092    22612.181   0.94266267 
  199600    369.49251   -264.80484    16546.137    5876.3089    22422.446   0.94266267 
  199700    365.01106   -54.901565    16345.454    6204.5743    22550.028   0.94266267 
  199800     366.1977   -450.35223    16398.593    6162.4483    22561.041   0.94266267 
  199900    367.27298   -425.03052    16446.744    6129.4637    22576.208   0.94266267 
  200000    368.71059   -125.05981    16511.122    6265.5225    22776.644   0.94266267 
  200100    370.89053    4.7125107    16608.741    6186.0545    22794.795   0.94266267 
Loop time of 2598.3 on 12 procs for 100000 steps with 15024 atoms

Performance: 3.325 ns/day, 7.217 hours/ns, 38.487 timesteps/s
98.9% CPU use with 12 MPI tasks x 1 OpenMP threads

MPI task timing breakdown:
Section |  min time  |  avg time  |  max time  |%varavg| %total
---------------------------------------------------------------
Pair    | 1486.5     | 1698.9     | 1920.4     | 390.1 | 65.39
Bond    | 63.021     | 69.298     | 73.095     |  42.5 |  2.67
Kspace  | 551.68     | 750.25     | 936.73     | 532.0 | 28.87
Neigh   | 8.1256     | 8.1274     | 8.1281     |   0.0 |  0.31
Comm    | 28.283     | 54.402     | 86.616     | 256.3 |  2.09
Output  | 0.064705   | 0.071192   | 0.13941    |   7.7 |  0.00
Modify  | 10.171     | 10.591     | 10.885     |   7.2 |  0.41
Other   |            | 6.633      |            |       |  0.26

Nlocal:    1252 ave 1305 max 1167 min
Histogram: 1 1 1 0 0 2 1 2 1 3
Nghost:    10038.2 ave 10119 max 9940 min
Histogram: 1 1 2 1 0 0 3 0 2 2
Neighs:    1.85318e+06 ave 1.97663e+06 max 1.67454e+06 min
Histogram: 1 0 2 1 2 0 0 1 1 4

Total # of neighbors = 22238119
Ave neighs/atom = 1480.17
Ave special neighs/atom = 8.6901
Neighbor list builds = 161
Dangerous builds = 0
System init for write_restart ...
Ewald initialization ...
WARNING: Using 12-bit tables for long-range coulomb (../kspace.cpp:321)
  G vector (1/distance) = 0.142093
  estimated absolute RMS force accuracy = 0.0384861
  estimated relative force accuracy = 0.0001159
  KSpace vectors: actual max1d max3d = 769 8 2456
                  kxmax kymax kzmax  = 7 6 8
Total wall time: 1:26:10
