
                                 *****************
                                 * O   R   C   A *
                                 *****************

           --- An Ab Initio, DFT and Semiempirical electronic structure package ---

                  #######################################################
                  #                        -***-                        #
                  #  Department of molecular theory and spectroscopy    #
                  #              Directorship: Frank Neese              #
                  # Max Planck Institute for Chemical Energy Conversion #
                  #                  D-45470 Muelheim/Ruhr              #
                  #                       Germany                       #
                  #                                                     #
                  #                  All rights reserved                #
                  #                        -***-                        #
                  #######################################################


                         Program Version 4.0.1.2 - RELEASE -


 With contributions from (in alphabetic order):
   Daniel Aravena         : Magnetic Properties
   Michael Atanasov       : Ab Initio Ligand Field Theory
   Ute Becker             : Parallelization
   Martin Brehm           : Molecular dynamics
   Dmytro Bykov           : SCF Hessian
   Vijay G. Chilkuri      : MRCI spin determinant printing
   Dipayan Datta          : RHF DLPNO-CCSD density
   Achintya Kumar Dutta   : EOM-CC, STEOM-CC
   Dmitry Ganyushin       : Spin-Orbit,Spin-Spin,Magnetic field MRCI
   Yang Guo               : DLPNO-NEVPT2, CIM, IAO-localization
   Andreas Hansen         : Spin unrestricted coupled pair/coupled cluster methods
   Lee Huntington         : MR-EOM, pCC
   Robert Izsak           : Overlap fitted RIJCOSX, COSX-SCS-MP3, EOM
   Christian Kollmar      : KDIIS, OOCD, Brueckner-CCSD(T), CCSD density
   Simone Kossmann        : Meta GGA functionals, TD-DFT gradient, OOMP2, MP2 Hessian
   Martin Krupicka        : AUTO-CI
   Dagmar Lenk            : GEPOL surface
   Dimitrios Liakos       : Extrapolation schemes; parallel MDCI
   Dimitrios Manganas     : ROCIS; embedding schemes
   Dimitrios Pantazis     : SARC Basis sets
   Taras Petrenko         : DFT Hessian,TD-DFT gradient, ASA, ECA, R-Raman, ABS, FL, XAS/XES, NRVS
   Peter Pinski           : DLPNO-MP2
   Christoph Reimann      : Effective Core Potentials
   Marius Retegan         : Local ZFS, SOC
   Christoph Riplinger    : Optimizer, TS searches, QM/MM, DLPNO-CCSD(T), (RO)-DLPNO pert. Triples
   Tobias Risthaus        : Range-separated hybrids, TD-DFT gradient, RPA, STAB
   Michael Roemelt        : Restricted open shell CIS
   Masaaki Saitow         : Open-shell DLPNO
   Barbara Sandhoefer     : DKH picture change effects
   Kantharuban Sivalingam : CASSCF convergence, NEVPT2, FIC-MRCI
   Georgi Stoychev        : AutoAux
   Boris Wezisla          : Elementary symmetry handling
   Frank Wennmohs         : Technical directorship


 We gratefully acknowledge several colleagues who have allowed us to
 interface, adapt or use parts of their codes:
   Stefan Grimme, W. Hujo, H. Kruse,             : VdW corrections, initial TS optimization,
                  C. Bannwarth                     DFT functionals, gCP, sTDA/sTD-DF
   Ed Valeev                                     : LibInt (2-el integral package), F12 methods
   Garnet Chan, S. Sharma, J. Yang, R. Olivares  : DMRG
   Ulf Ekstrom                                   : XCFun DFT Library
   Mihaly Kallay                                 : mrcc  (arbitrary order and MRCC methods)
   Andreas Klamt, Michael Diedenhofen            : otool_cosmo (COSMO solvation model)
   Jiri Pittner, Ondrej Demel                    : Mk-CCSD
   Frank Weinhold                                : gennbo (NPA and NBO analysis)
   Christopher J. Cramer and Donald G. Truhlar   : smd solvation model


 Your calculation uses the libint2 library for the computation of 2-el integrals
 For citations please refer to: http://libint.valeyev.net

 This ORCA versions uses:
   CBLAS   interface :  Fast vector & matrix operations
   LAPACKE interface :  Fast linear algebra routines
   SCALAPACK package :  Parallel linear algebra routines


Your calculation utilizes the basis: 6-31+G**
   H-He, Li-Ne : W. J. Hehre, R. Ditchfield and J.A. Pople, J. Chem. Phys. 56, 2257 (1972).
                 Note: He and Ne are unpublished basis sets taken from the Gaussian program.
                 Note: Li and B from J. D. Dill and J. A. Pople, J. Chem. Phys. 62, 2921 (1975).
   Na - Ar     : M. M. Francl, W. J. Pietro, W. J. Hehre, J. S. Binkley, M. S. Gordon, 
                 D. J. DeFrees and J. A. Pople, J. Chem. Phys. 77, 3654 (1982).
   K - Zn      : V. A. Rassolov, J. A. Pople, M. A. Ratner, and T. L. Windus, J. Chem. Phys. 109, 1223 (1998).
   Additional Pol./Diff. from the 6-311G equivalent.

================================================================================
                                        WARNINGS
                       Please study these warnings very carefully!
================================================================================

Warning: TCutStore was < 0. Adjusted to Thresh (uncritical)

WARNING: Geometry Optimization
  ===> : Switching off AutoStart
         For restart on a previous wavefunction, please use MOREAD

INFO   : the flag for use of LIBINT has been found!

================================================================================
                                       INPUT FILE
================================================================================
NAME = OEG5.inp
|  1> ! RKS B3LYP 6-31+G** NormalSCF Opt NOSOSCF CHELPG
|  2> 
|  3> *xyz 0 1
|  4> S -0.20449 -3.58696 -2.43865
|  5> C -0.20449 -1.74897 -2.43865
|  6> C -0.10199 -1.22162 -1.00422
|  7> O -0.10273 0.21561 -1.02977
|  8> C -0.00688 0.74670 0.28808
|  9> C -0.01067 2.26797 0.21258
| 10> O 0.08577 2.81351 1.53035
| 11> C 0.08649 4.23847 1.50322
| 12> C 0.19211 4.76185 2.93029
| 13> O 0.19435 6.18940 2.91484
| 14> C 0.29219 6.72198 4.23423
| 15> C 0.28959 8.24378 4.15906
| 16> O 0.38635 8.78367 5.47689
| 17> C 0.38648 10.21075 5.45434
| 18> C 0.49040 10.73294 6.88192
| 19> O 0.49100 12.16016 6.86965
| 20> C 0.58677 12.68854 8.18561
| 21> H -1.10713 -1.32712 -2.89848
| 22> H 0.62364 -1.32715 -3.02211
| 23> H 0.82621 -1.56408 -0.52909
| 24> H -0.95411 -1.56265 -0.40241
| 25> H 0.91606 0.40250 0.76994
| 26> H -0.85154 0.40427 0.89782
| 27> H -0.93320 2.61403 -0.26913
| 28> H 0.83336 2.61190 -0.39745
| 29> H -0.83531 4.60856 1.03868
| 30> H 0.93218 4.60516 0.90923
| 31> H 1.11328 4.38975 3.39482
| 32> H -0.65343 4.39399 3.52408
| 33> H 1.21540 6.37494 4.71401
| 34> H -0.55215 6.37830 4.84394
| 35> H -0.63276 8.59010 3.67768
| 36> H 1.13418 8.58671 3.54925
| 37> H -0.53525 10.58056 4.98882
| 38> H 1.23225 10.57851 4.86070
| 39> H 1.41177 10.36080 7.34617
| 40> H -0.35486 10.36246 7.47429
| 41> H 0.58303 13.77975 8.11965
| 42> H 1.52043 12.37002 8.65917
| 43> H -0.26955 12.37171 8.78874
| 44> **                         ****END OF INPUT****
================================================================================

                       *****************************
                       * Geometry Optimization Run *
                       *****************************

Geometry optimization settings:
Update method            Update   .... BFGS
Choice of coordinates    CoordSys .... Redundant Internals
Initial Hessian          InHess   .... Almoef's Model

Convergence Tolerances:
Energy Change            TolE     ....  5.0000e-06 Eh
Max. Gradient            TolMAXG  ....  3.0000e-04 Eh/bohr
RMS Gradient             TolRMSG  ....  1.0000e-04 Eh/bohr
Max. Displacement        TolMAXD  ....  4.0000e-03 bohr
RMS Displacement         TolRMSD  ....  2.0000e-03 bohr

------------------------------------------------------------------------------
                        ORCA OPTIMIZATION COORDINATE SETUP
------------------------------------------------------------------------------

The optimization will be done in new redundant internal coordinates
Making redundant internal coordinates   ...  (new redundants) done
Evaluating the initial hessian          ...  (Almloef) done
Evaluating the coordinates              ...  done
Calculating the B-matrix                .... done
Calculating the G-matrix                .... done
Diagonalizing the G-matrix              .... done
Small eigenvalue found = 5.499e-04
Small eigenvalue found = 2.438e-03
Small eigenvalue found = 3.722e-03
Small eigenvalue found = 1.092e-02
Small eigenvalue found = 1.353e-02
Small eigenvalue found = 1.439e-02
Small eigenvalue found = 1.833e-02
The first mode is                       ....   71
The number of degrees of freedom        ....  114

    -----------------------------------------------------------------
                    Redundant Internal Coordinates


    -----------------------------------------------------------------
         Definition                    Initial Value    Approx d2E/dq
    -----------------------------------------------------------------
      1. B(C   1,S   0)                  1.8380         0.324913   
      2. B(C   2,C   1)                  1.5317         0.371209   
      3. B(O   3,C   2)                  1.4375         0.470068   
      4. B(C   4,O   3)                  1.4241         0.493765   
      5. B(C   5,C   4)                  1.5231         0.383099   
      6. B(O   6,C   5)                  1.4295         0.484035   
      7. B(C   7,O   6)                  1.4252         0.491685   
      8. B(C   8,C   7)                  1.5237         0.382345   
      9. B(O   9,C   8)                  1.4276         0.487338   
     10. B(C  10,O   9)                  1.4262         0.489942   
     11. B(C  11,C  10)                  1.5237         0.382381   
     12. B(O  12,C  11)                  1.4274         0.487729   
     13. B(C  13,O  12)                  1.4273         0.488014   
     14. B(C  14,C  13)                  1.5236         0.382412   
     15. B(O  15,C  14)                  1.4273         0.487988   
     16. B(C  16,O  15)                  1.4213         0.498804   
     17. B(H  17,C   1)                  1.0973         0.350517   
     18. B(H  18,C   1)                  1.0973         0.350519   
     19. B(H  19,C   2)                  1.0975         0.350269   
     20. B(H  20,C   2)                  1.0975         0.350268   
     21. B(H  21,C   4)                  1.0966         0.351504   
     22. B(H  22,C   4)                  1.0966         0.351498   
     23. B(H  23,C   5)                  1.0968         0.351279   
     24. B(H  24,C   5)                  1.0967         0.351310   
     25. B(H  25,C   7)                  1.0966         0.351505   
     26. B(H  26,C   7)                  1.0966         0.351506   
     27. B(H  27,C   8)                  1.0967         0.351316   
     28. B(H  28,C   8)                  1.0967         0.351289   
     29. B(H  29,C  10)                  1.0968         0.351232   
     30. B(H  30,C  10)                  1.0967         0.351332   
     31. B(H  31,C  11)                  1.0965         0.351555   
     32. B(H  32,C  11)                  1.0967         0.351315   
     33. B(H  33,C  13)                  1.0968         0.351166   
     34. B(H  34,C  13)                  1.0968         0.351209   
     35. B(H  35,C  14)                  1.0968         0.351234   
     36. B(H  36,C  14)                  1.0966         0.351421   
     37. B(H  37,C  16)                  1.0932         0.355881   
     38. B(H  38,C  16)                  1.0943         0.354491   
     39. B(H  39,C  16)                  1.0943         0.354493   
     40. A(S   0,C   1,H  18)          112.6066         0.331523   
     41. A(C   2,C   1,H  18)          108.3659         0.322551   
     42. A(S   0,C   1,H  17)          112.6083         0.331523   
     43. A(H  17,C   1,H  18)          104.4886         0.288390   
     44. A(S   0,C   1,C   2)          110.1381         0.373074   
     45. A(C   2,C   1,H  17)          108.3676         0.322551   
     46. A(H  19,C   2,H  20)          108.8007         0.288326   
     47. A(C   1,C   2,H  19)          110.7674         0.322513   
     48. A(C   1,C   2,H  20)          110.7668         0.322513   
     49. A(O   3,C   2,H  20)          108.6642         0.333305   
     50. A(O   3,C   2,H  19)          108.6694         0.333305   
     51. A(C   1,C   2,O   3)          109.1201         0.375206   
     52. A(C   2,O   3,C   4)          110.8790         0.391785   
     53. A(H  21,C   4,H  22)          107.8151         0.288643   
     54. A(C   5,C   4,H  21)          109.7170         0.324373   
     55. A(O   3,C   4,H  22)          110.2588         0.336235   
     56. A(C   5,C   4,H  22)          109.7265         0.324372   
     57. A(O   3,C   4,C   5)          109.0528         0.380483   
     58. A(O   3,C   4,H  21)          110.2572         0.336236   
     59. A(C   4,C   5,H  23)          109.8164         0.324339   
     60. A(C   4,C   5,O   6)          109.5908         0.379173   
     61. A(H  23,C   5,H  24)          107.7031         0.288590   
     62. A(O   6,C   5,H  24)          109.9475         0.335094   
     63. A(C   4,C   5,H  24)          109.8078         0.324343   
     64. A(O   6,C   5,H  23)          109.9512         0.335090   
     65. A(C   5,O   6,C   7)          111.3492         0.393507   
     66. A(O   6,C   7,C   8)          109.0044         0.380074   
     67. A(C   8,C   7,H  26)          109.8164         0.324268   
     68. A(H  25,C   7,H  26)          107.8162         0.288644   
     69. A(O   6,C   7,H  26)          110.1840         0.336001   
     70. A(C   8,C   7,H  25)          109.8226         0.324268   
     71. A(O   6,C   7,H  25)          110.1863         0.336000   
     72. A(H  27,C   8,H  28)          107.7237         0.288592   
     73. A(O   9,C   8,H  28)          110.0268         0.335470   
     74. A(C   7,C   8,H  28)          109.7811         0.324235   
     75. A(O   9,C   8,H  27)          110.0310         0.335475   
     76. A(C   7,C   8,H  27)          109.7785         0.324239   
     77. A(C   7,C   8,O   9)          109.4782         0.379490   
     78. A(C   8,O   9,C  10)          111.3155         0.393731   
     79. A(H  29,C  10,H  30)          107.7999         0.288587   
     80. A(C  11,C  10,H  30)          109.8224         0.324247   
     81. A(O   9,C  10,H  30)          110.1498         0.335775   
     82. A(C  11,C  10,H  29)          109.8188         0.324232   
     83. A(O   9,C  10,H  29)          110.1373         0.335759   
     84. A(O   9,C  10,C  11)          109.0999         0.379847   
     85. A(H  31,C  11,H  32)          107.7532         0.288626   
     86. A(O  12,C  11,H  32)          110.0519         0.335519   
     87. A(C  10,C  11,H  32)          109.7808         0.324244   
     88. A(O  12,C  11,H  31)          110.0512         0.335557   
     89. A(C  10,C  11,H  31)          109.7879         0.324281   
     90. A(C  10,C  11,O  12)          109.3965         0.379549   
     91. A(C  11,O  12,C  13)          111.3215         0.393515   
     92. A(H  33,C  13,H  34)          107.7731         0.288563   
     93. A(O  12,C  13,H  34)          110.1135         0.335535   
     94. A(C  14,C  13,H  33)          109.8419         0.324226   
     95. A(O  12,C  13,H  33)          110.1053         0.335528   
     96. A(O  12,C  13,C  14)          109.1405         0.379593   
     97. A(C  14,C  13,H  34)          109.8532         0.324232   
     98. A(C  13,C  14,H  36)          109.7404         0.324265   
     99. A(O  15,C  14,H  35)          110.0338         0.335536   
    100. A(C  13,C  14,H  35)          109.7311         0.324236   
    101. A(C  13,C  14,O  15)          109.5535         0.379589   
    102. A(H  35,C  14,H  36)          107.7117         0.288599   
    103. A(O  15,C  14,H  36)          110.0467         0.335566   
    104. A(C  14,O  15,C  16)          111.3345         0.395062   
    105. A(H  38,C  16,H  39)          110.1748         0.289410   
    106. A(H  37,C  16,H  39)          108.6378         0.289588   
    107. A(O  15,C  16,H  39)          110.4844         0.337281   
    108. A(H  37,C  16,H  38)          108.6373         0.289588   
    109. A(O  15,C  16,H  38)          110.4853         0.337280   
    110. A(O  15,C  16,H  37)          108.3598         0.337500   
    111. D(H  19,C   2,C   1,H  17)   -176.0499         0.011011   
    112. D(H  20,C   2,C   1,H  18)    175.9550         0.011011   
    113. D(H  20,C   2,C   1,H  17)     63.1250         0.011011   
    114. D(O   3,C   2,C   1,S   0)    179.9543         0.011011   
    115. D(H  19,C   2,C   1,S   0)     60.3635         0.011011   
    116. D(H  20,C   2,C   1,S   0)    -60.4616         0.011011   
    117. D(H  19,C   2,C   1,H  18)    -63.2199         0.011011   
    118. D(O   3,C   2,C   1,H  18)     56.3709         0.011011   
    119. D(O   3,C   2,C   1,H  17)    -56.4591         0.011011   
    120. D(C   4,O   3,C   2,H  19)    -59.0483         0.017417   
    121. D(C   4,O   3,C   2,H  20)     59.1935         0.017417   
    122. D(C   4,O   3,C   2,C   1)   -179.9293         0.017417   
    123. D(H  22,C   4,O   3,C   2)    -59.4819         0.019260   
    124. D(H  21,C   4,O   3,C   2)     59.4547         0.019260   
    125. D(C   5,C   4,O   3,C   2)    179.9801         0.019260   
    126. D(H  24,C   5,C   4,H  22)   -179.9703         0.011687   
    127. D(H  24,C   5,C   4,O   3)    -59.1061         0.011687   
    128. D(H  23,C   5,C   4,H  22)    -61.7190         0.011687   
    129. D(H  23,C   5,C   4,H  21)   -179.9983         0.011687   
    130. D(O   6,C   5,C   4,H  22)     59.1604         0.011687   
    131. D(O   6,C   5,C   4,H  21)    -59.1190         0.011687   
    132. D(H  24,C   5,C   4,H  21)     61.7503         0.011687   
    133. D(O   6,C   5,C   4,O   3)   -179.9754         0.011687   
    134. D(H  23,C   5,C   4,O   3)     59.1452         0.011687   
    135. D(C   7,O   6,C   5,C   4)    179.9526         0.018489   
    136. D(C   7,O   6,C   5,H  23)    -59.2497         0.018489   
    137. D(C   7,O   6,C   5,H  24)     59.1679         0.018489   
    138. D(H  26,C   7,O   6,C   5)    -59.3761         0.019094   
    139. D(H  25,C   7,O   6,C   5)     59.4709         0.019094   
    140. D(C   8,C   7,O   6,C   5)   -179.9481         0.019094   
    141. D(O   9,C   8,C   7,O   6)    179.9720         0.011644   
    142. D(H  28,C   8,C   7,H  25)     61.6556         0.011644   
    143. D(H  28,C   8,C   7,O   6)    -59.1485         0.011644   
    144. D(H  27,C   8,C   7,H  26)    -61.7084         0.011644   
    145. D(H  27,C   8,C   7,H  25)    179.8931         0.011644   
    146. D(H  27,C   8,C   7,O   6)     59.0890         0.011644   
    147. D(O   9,C   8,C   7,H  26)     59.1746         0.011644   
    148. D(H  28,C   8,C   7,H  26)   -179.9460         0.011644   
    149. D(O   9,C   8,C   7,H  25)    -59.2239         0.011644   
    150. D(C  10,O   9,C   8,H  28)     59.2730         0.018749   
    151. D(C  10,O   9,C   8,H  27)    -59.2671         0.018749   
    152. D(C  10,O   9,C   8,C   7)   -179.9968         0.018749   
    153. D(H  30,C  10,O   9,C   8)    -59.3541         0.018955   
    154. D(H  29,C  10,O   9,C   8)     59.4211         0.018955   
    155. D(C  11,C  10,O   9,C   8)   -179.9726         0.018955   
    156. D(H  32,C  11,C  10,H  30)    179.9983         0.011646   
    157. D(H  32,C  11,C  10,H  29)     61.6185         0.011646   
    158. D(H  32,C  11,C  10,O   9)    -59.1829         0.011646   
    159. D(H  31,C  11,C  10,H  30)    -61.7226         0.011646   
    160. D(H  31,C  11,C  10,H  29)    179.8975         0.011646   
    161. D(H  31,C  11,C  10,O   9)     59.0962         0.011646   
    162. D(O  12,C  11,C  10,H  30)     59.1396         0.011646   
    163. D(O  12,C  11,C  10,H  29)    -59.2402         0.011646   
    164. D(O  12,C  11,C  10,O   9)    179.9584         0.011646   
    165. D(C  13,O  12,C  11,H  32)     59.3456         0.018780   
    166. D(C  13,O  12,C  11,H  31)    -59.2586         0.018780   
    167. D(C  13,O  12,C  11,C  10)   -179.9607         0.018780   
    168. D(H  34,C  13,O  12,C  11)    -59.3730         0.018802   
    169. D(H  33,C  13,O  12,C  11)     59.3269         0.018802   
    170. D(C  14,C  13,O  12,C  11)    179.9674         0.018802   
    171. D(O  15,C  14,C  13,H  34)     59.1929         0.011648   
    172. D(O  15,C  14,C  13,H  33)    -59.1867         0.011648   
    173. D(O  15,C  14,C  13,O  12)   -179.9884         0.011648   
    174. D(H  36,C  14,C  13,H  34)   -179.8811         0.011648   
    175. D(H  36,C  14,C  13,H  33)     61.7392         0.011648   
    176. D(H  36,C  14,C  13,O  12)    -59.0624         0.011648   
    177. D(H  35,C  14,C  13,H  34)    -61.7111         0.011648   
    178. D(H  35,C  14,C  13,H  33)    179.9092         0.011648   
    179. D(H  35,C  14,C  13,O  12)     59.1076         0.011648   
    180. D(C  16,O  15,C  14,H  36)     59.2566         0.018800   
    181. D(C  16,O  15,C  14,H  35)    -59.2826         0.018800   
    182. D(C  16,O  15,C  14,C  13)    179.9968         0.018800   
    183. D(H  39,C  16,O  15,C  14)    -61.0843         0.019667   
    184. D(H  38,C  16,O  15,C  14)     61.0958         0.019667   
    185. D(H  37,C  16,O  15,C  14)   -179.9942         0.019667   
    -----------------------------------------------------------------

Number of atoms                         .... 40
Number of degrees of freedom            .... 185

         *************************************************************
         *                GEOMETRY OPTIMIZATION CYCLE   1            *
         *************************************************************
---------------------------------
CARTESIAN COORDINATES (ANGSTROEM)
---------------------------------
  S     -0.204490   -3.586960   -2.438650
  C     -0.204490   -1.748970   -2.438650
  C     -0.101990   -1.221620   -1.004220
  O     -0.102730    0.215610   -1.029770
  C     -0.006880    0.746700    0.288080
  C     -0.010670    2.267970    0.212580
  O      0.085770    2.813510    1.530350
  C      0.086490    4.238470    1.503220
  C      0.192110    4.761850    2.930290
  O      0.194350    6.189400    2.914840
  C      0.292190    6.721980    4.234230
  C      0.289590    8.243780    4.159060
  O      0.386350    8.783670    5.476890
  C      0.386480   10.210750    5.454340
  C      0.490400   10.732940    6.881920
  O      0.491000   12.160160    6.869650
  C      0.586770   12.688540    8.185610
  H     -1.107130   -1.327120   -2.898480
  H      0.623640   -1.327150   -3.022110
  H      0.826210   -1.564080   -0.529090
  H     -0.954110   -1.562650   -0.402410
  H      0.916060    0.402500    0.769940
  H     -0.851540    0.404270    0.897820
  H     -0.933200    2.614030   -0.269130
  H      0.833360    2.611900   -0.397450
  H     -0.835310    4.608560    1.038680
  H      0.932180    4.605160    0.909230
  H      1.113280    4.389750    3.394820
  H     -0.653430    4.393990    3.524080
  H      1.215400    6.374940    4.714010
  H     -0.552150    6.378300    4.843940
  H     -0.632760    8.590100    3.677680
  H      1.134180    8.586710    3.549250
  H     -0.535250   10.580560    4.988820
  H      1.232250   10.578510    4.860700
  H      1.411770   10.360800    7.346170
  H     -0.354860   10.362460    7.474290
  H      0.583030   13.779750    8.119650
  H      1.520430   12.370020    8.659170
  H     -0.269550   12.371710    8.788740

----------------------------
CARTESIAN COORDINATES (A.U.)
----------------------------
  NO LB      ZA    FRAG     MASS         X           Y           Z
   0 S    16.0000    0    32.060   -0.386430   -6.778372   -4.608381
   1 C     6.0000    0    12.011   -0.386430   -3.305074   -4.608381
   2 C     6.0000    0    12.011   -0.192733   -2.308527   -1.897701
   3 O     8.0000    0    15.999   -0.194132    0.407444   -1.945983
   4 C     6.0000    0    12.011   -0.013001    1.411059    0.544392
   5 C     6.0000    0    12.011   -0.020163    4.285842    0.401718
   6 O     8.0000    0    15.999    0.162082    5.316763    2.891942
   7 C     6.0000    0    12.011    0.163442    8.009548    2.840674
   8 C     6.0000    0    12.011    0.363035    8.998592    5.537446
   9 O     8.0000    0    15.999    0.367268   11.696271    5.508249
  10 C     6.0000    0    12.011    0.552159   12.702701    8.001535
  11 C     6.0000    0    12.011    0.547246   15.578487    7.859484
  12 O     8.0000    0    15.999    0.730096   16.598731   10.349822
  13 C     6.0000    0    12.011    0.730341   19.295521   10.307209
  14 C     6.0000    0    12.011    0.926722   20.282317   13.004944
  15 O     8.0000    0    15.999    0.927856   22.979372   12.981757
  16 C     6.0000    0    12.011    1.108835   23.977866   15.468561
  17 H     1.0000    0     1.008   -2.092172   -2.507893   -5.477333
  18 H     1.0000    0     1.008    1.178509   -2.507950   -5.710960
  19 H     1.0000    0     1.008    1.561311   -2.955683   -0.999835
  20 H     1.0000    0     1.008   -1.803007   -2.952981   -0.760445
  21 H     1.0000    0     1.008    1.731103    0.760615    1.454976
  22 H     1.0000    0     1.008   -1.609177    0.763960    1.696634
  23 H     1.0000    0     1.008   -1.763492    4.939801   -0.508582
  24 H     1.0000    0     1.008    1.574822    4.935776   -0.751072
  25 H     1.0000    0     1.008   -1.578507    8.708916    1.962821
  26 H     1.0000    0     1.008    1.761565    8.702491    1.718196
  27 H     1.0000    0     1.008    2.103794    8.295425    6.415280
  28 H     1.0000    0     1.008   -1.234804    8.303438    6.659546
  29 H     1.0000    0     1.008    2.296773   12.046891    8.908188
  30 H     1.0000    0     1.008   -1.043412   12.053240    9.153720
  31 H     1.0000    0     1.008   -1.195743   16.232936    6.949808
  32 H     1.0000    0     1.008    2.143290   16.226530    6.707110
  33 H     1.0000    0     1.008   -1.011476   19.994361    9.427504
  34 H     1.0000    0     1.008    2.328615   19.990487    9.185392
  35 H     1.0000    0     1.008    2.667859   19.579075   13.882249
  36 H     1.0000    0     1.008   -0.670588   19.582211   14.124361
  37 H     1.0000    0     1.008    1.101767   26.039954   15.343915
  38 H     1.0000    0     1.008    2.873196   23.375950   16.363460
  39 H     1.0000    0     1.008   -0.509376   23.379144   16.608312

--------------------------------
INTERNAL COORDINATES (ANGSTROEM)
--------------------------------
 S      0   0   0     0.000000000000     0.00000000     0.00000000
 C      1   0   0     1.837990000000     0.00000000     0.00000000
 C      2   1   0     1.531728989541   110.13810323     0.00000000
 O      3   2   1     1.437457276930   109.12013107   179.95431367
 C      4   3   2     1.424068970626   110.87903288   180.07067790
 C      5   4   3     1.523147079897   109.05284738   179.98005468
 O      6   5   4     1.429486739393   109.59082602   180.02460886
 C      7   6   5     1.425218424277   111.34915162   179.95264042
 C      8   7   6     1.523683363990   109.00439189   180.05188277
 O      9   8   7     1.427635360518   109.47824408   179.97203182
 C     10   9   8     1.426185154214   111.31550658   180.00321018
 C     11  10   9     1.523657615378   109.09991549   180.02742152
 O     12  11  10     1.427417114441   109.39654159   179.95842810
 C     13  12  11     1.427258156677   111.32151310   180.03932367
 C     14  13  12     1.523635920717   109.14052680   179.96743232
 O     15  14  13     1.427272868550   109.55352836   180.01163608
 C     16  15  14     1.421305047799   111.33448043   179.99681815
 H      2   1   3     1.097342253356   112.60828599   238.91720258
 H      2   1   3     1.097340868144   112.60661933   121.07942193
 H      3   2   1     1.097534786920   110.76739013    60.36346126
 H      3   2   1     1.097535981825   110.76681619   299.53835859
 H      5   4   3     1.096576920786   110.25723593    59.45468142
 H      5   4   3     1.096581820066   110.25879294   300.51809384
 H      6   5   4     1.096751406929   109.81639950    59.14523183
 H      6   5   4     1.096727444126   109.80783086   300.89392194
 H      8   7   6     1.096576153169   110.18632024    59.47090570
 H      8   7   6     1.096575237866   110.18398280   300.62387147
 H      9   8   7     1.096722708710   109.77851347    59.08902982
 H      9   8   7     1.096743103603   109.78112863   300.85146950
 H     11  10   9     1.096787269301   110.13734266    59.42107914
 H     11  10   9     1.096709743779   110.14978104   300.64586959
 H     12  11  10     1.096537171873   109.78789177    59.09619701
 H     12  11  10     1.096723068555   109.78079531   300.81713783
 H     14  13  12     1.096838410797   110.10532482    59.32688555
 H     14  13  12     1.096805707544   110.11348704   300.62698515
 H     15  14  13     1.096785721552   109.73111823    59.10757405
 H     15  14  13     1.096641288161   109.74038948   300.93756836
 H     17  16  15     1.093208110700   108.35977423   180.00577566
 H     17  16  15     1.094273758984   110.48531546    61.09584766
 H     17  16  15     1.094271898661   110.48438894   298.91567923

---------------------------
INTERNAL COORDINATES (A.U.)
---------------------------
 S      0   0   0     0.000000000000     0.00000000     0.00000000
 C      1   0   0     3.473297736886     0.00000000     0.00000000
 C      2   1   0     2.894548301620   110.13810323     0.00000000
 O      3   2   1     2.716400582611   109.12013107   179.95431367
 C      4   3   2     2.691100350298   110.87903288   180.07067790
 C      5   4   3     2.878330842688   109.05284738   179.98005468
 O      6   5   4     2.701338449525   109.59082602   180.02460886
 C      7   6   5     2.693272502903   111.34915162   179.95264042
 C      8   7   6     2.879344272753   109.00439189   180.05188277
 O      9   8   7     2.697839850480   109.47824408   179.97203182
 C     10   9   8     2.695099357728   111.31550658   180.00321018
 C     11  10   9     2.879295614928   109.09991549   180.02742152
 O     12  11  10     2.697427425166   109.39654159   179.95842810
 C     13  12  11     2.697127038524   111.32151310   180.03932367
 C     14  13  12     2.879254617961   109.14052680   179.96743232
 O     15  14  13     2.697154839936   109.55352836   180.01163608
 C     16  15  14     2.685877293101   111.33448043   179.99681815
 H      2   1   3     2.073676334023   112.60828599   238.91720258
 H      2   1   3     2.073673716352   112.60661933   121.07942193
 H      3   2   1     2.074040169731   110.76739013    60.36346126
 H      3   2   1     2.074042427773   110.76681619   299.53835859
 H      5   4   3     2.072230065064   110.25723593    59.45468142
 H      5   4   3     2.072239323362   110.25879294   300.51809384
 H      6   5   4     2.072559796088   109.81639950    59.14523183
 H      6   5   4     2.072514512954   109.80783086   300.89392194
 H      8   7   6     2.072228614479   110.18632024    59.47090570
 H      8   7   6     2.072226884806   110.18398280   300.62387147
 H      9   8   7     2.072505564314   109.77851347    59.08902982
 H      9   8   7     2.072544105076   109.78112863   300.85146950
 H     11  10   9     2.072627566150   110.13734266    59.42107914
 H     11  10   9     2.072481064145   110.14978104   300.64586959
 H     12  11  10     2.072154950505   109.78789177    59.09619701
 H     12  11  10     2.072506244322   109.78079531   300.81713783
 H     14  13  12     2.072724209572   110.10532482    59.32688555
 H     14  13  12     2.072662409379   110.11348704   300.62698515
 H     15  14  13     2.072624641328   109.73111823    59.10757405
 H     15  14  13     2.072351701775   109.74038948   300.93756836
 H     17  16  15     2.065863936604   108.35977423   180.00577566
 H     17  16  15     2.067877720015   110.48531546    61.09584766
 H     17  16  15     2.067874204516   110.48438894   298.91567923

---------------------
BASIS SET INFORMATION
---------------------
There are 4 groups of distinct atoms

 Group   1 Type S   : 17s11p1d contracted to 5s4p1d pattern {66311/6311/1}
 Group   2 Type C   : 11s5p1d contracted to 4s3p1d pattern {6311/311/1}
 Group   3 Type O   : 11s5p1d contracted to 4s3p1d pattern {6311/311/1}
 Group   4 Type H   : 4s1p contracted to 2s1p pattern {31/1}

Atom   0S    basis set group =>   1
Atom   1C    basis set group =>   2
Atom   2C    basis set group =>   2
Atom   3O    basis set group =>   3
Atom   4C    basis set group =>   2
Atom   5C    basis set group =>   2
Atom   6O    basis set group =>   3
Atom   7C    basis set group =>   2
Atom   8C    basis set group =>   2
Atom   9O    basis set group =>   3
Atom  10C    basis set group =>   2
Atom  11C    basis set group =>   2
Atom  12O    basis set group =>   3
Atom  13C    basis set group =>   2
Atom  14C    basis set group =>   2
Atom  15O    basis set group =>   3
Atom  16C    basis set group =>   2
Atom  17H    basis set group =>   4
Atom  18H    basis set group =>   4
Atom  19H    basis set group =>   4
Atom  20H    basis set group =>   4
Atom  21H    basis set group =>   4
Atom  22H    basis set group =>   4
Atom  23H    basis set group =>   4
Atom  24H    basis set group =>   4
Atom  25H    basis set group =>   4
Atom  26H    basis set group =>   4
Atom  27H    basis set group =>   4
Atom  28H    basis set group =>   4
Atom  29H    basis set group =>   4
Atom  30H    basis set group =>   4
Atom  31H    basis set group =>   4
Atom  32H    basis set group =>   4
Atom  33H    basis set group =>   4
Atom  34H    basis set group =>   4
Atom  35H    basis set group =>   4
Atom  36H    basis set group =>   4
Atom  37H    basis set group =>   4
Atom  38H    basis set group =>   4
Atom  39H    basis set group =>   4
[file orca_main/mainfcts.cpp, line 334]: Error : multiplicity (1) is odd and number of electrons (145) is odd -> impossible

