
                                 *****************
                                 * O   R   C   A *
                                 *****************

           --- An Ab Initio, DFT and Semiempirical electronic structure package ---

                  #######################################################
                  #                        -***-                        #
                  #  Department of molecular theory and spectroscopy    #
                  #              Directorship: Frank Neese              #
                  # Max Planck Institute for Chemical Energy Conversion #
                  #                  D-45470 Muelheim/Ruhr              #
                  #                       Germany                       #
                  #                                                     #
                  #                  All rights reserved                #
                  #                        -***-                        #
                  #######################################################


                         Program Version 4.0.1.2 - RELEASE -


 With contributions from (in alphabetic order):
   Daniel Aravena         : Magnetic Properties
   Michael Atanasov       : Ab Initio Ligand Field Theory
   Ute Becker             : Parallelization
   Martin Brehm           : Molecular dynamics
   Dmytro Bykov           : SCF Hessian
   Vijay G. Chilkuri      : MRCI spin determinant printing
   Dipayan Datta          : RHF DLPNO-CCSD density
   Achintya Kumar Dutta   : EOM-CC, STEOM-CC
   Dmitry Ganyushin       : Spin-Orbit,Spin-Spin,Magnetic field MRCI
   Yang Guo               : DLPNO-NEVPT2, CIM, IAO-localization
   Andreas Hansen         : Spin unrestricted coupled pair/coupled cluster methods
   Lee Huntington         : MR-EOM, pCC
   Robert Izsak           : Overlap fitted RIJCOSX, COSX-SCS-MP3, EOM
   Christian Kollmar      : KDIIS, OOCD, Brueckner-CCSD(T), CCSD density
   Simone Kossmann        : Meta GGA functionals, TD-DFT gradient, OOMP2, MP2 Hessian
   Martin Krupicka        : AUTO-CI
   Dagmar Lenk            : GEPOL surface
   Dimitrios Liakos       : Extrapolation schemes; parallel MDCI
   Dimitrios Manganas     : ROCIS; embedding schemes
   Dimitrios Pantazis     : SARC Basis sets
   Taras Petrenko         : DFT Hessian,TD-DFT gradient, ASA, ECA, R-Raman, ABS, FL, XAS/XES, NRVS
   Peter Pinski           : DLPNO-MP2
   Christoph Reimann      : Effective Core Potentials
   Marius Retegan         : Local ZFS, SOC
   Christoph Riplinger    : Optimizer, TS searches, QM/MM, DLPNO-CCSD(T), (RO)-DLPNO pert. Triples
   Tobias Risthaus        : Range-separated hybrids, TD-DFT gradient, RPA, STAB
   Michael Roemelt        : Restricted open shell CIS
   Masaaki Saitow         : Open-shell DLPNO
   Barbara Sandhoefer     : DKH picture change effects
   Kantharuban Sivalingam : CASSCF convergence, NEVPT2, FIC-MRCI
   Georgi Stoychev        : AutoAux
   Boris Wezisla          : Elementary symmetry handling
   Frank Wennmohs         : Technical directorship


 We gratefully acknowledge several colleagues who have allowed us to
 interface, adapt or use parts of their codes:
   Stefan Grimme, W. Hujo, H. Kruse,             : VdW corrections, initial TS optimization,
                  C. Bannwarth                     DFT functionals, gCP, sTDA/sTD-DF
   Ed Valeev                                     : LibInt (2-el integral package), F12 methods
   Garnet Chan, S. Sharma, J. Yang, R. Olivares  : DMRG
   Ulf Ekstrom                                   : XCFun DFT Library
   Mihaly Kallay                                 : mrcc  (arbitrary order and MRCC methods)
   Andreas Klamt, Michael Diedenhofen            : otool_cosmo (COSMO solvation model)
   Jiri Pittner, Ondrej Demel                    : Mk-CCSD
   Frank Weinhold                                : gennbo (NPA and NBO analysis)
   Christopher J. Cramer and Donald G. Truhlar   : smd solvation model


 Your calculation uses the libint2 library for the computation of 2-el integrals
 For citations please refer to: http://libint.valeyev.net

 This ORCA versions uses:
   CBLAS   interface :  Fast vector & matrix operations
   LAPACKE interface :  Fast linear algebra routines
   SCALAPACK package :  Parallel linear algebra routines


Your calculation utilizes the basis: 6-31+G**
   H-He, Li-Ne : W. J. Hehre, R. Ditchfield and J.A. Pople, J. Chem. Phys. 56, 2257 (1972).
                 Note: He and Ne are unpublished basis sets taken from the Gaussian program.
                 Note: Li and B from J. D. Dill and J. A. Pople, J. Chem. Phys. 62, 2921 (1975).
   Na - Ar     : M. M. Francl, W. J. Pietro, W. J. Hehre, J. S. Binkley, M. S. Gordon, 
                 D. J. DeFrees and J. A. Pople, J. Chem. Phys. 77, 3654 (1982).
   K - Zn      : V. A. Rassolov, J. A. Pople, M. A. Ratner, and T. L. Windus, J. Chem. Phys. 109, 1223 (1998).
   Additional Pol./Diff. from the 6-311G equivalent.

================================================================================
                                        WARNINGS
                       Please study these warnings very carefully!
================================================================================

Warning: TCutStore was < 0. Adjusted to Thresh (uncritical)

WARNING: Geometry Optimization
  ===> : Switching off AutoStart
         For restart on a previous wavefunction, please use MOREAD

INFO   : the flag for use of LIBINT has been found!

================================================================================
                                       INPUT FILE
================================================================================
NAME = OEG5.inp
|  1> ! RKS B3LYP 6-31+G** NormalSCF Opt NOSOSCF CHELPG
|  2> 
|  3> *xyz 0 1
|  4> S -3.51012 -2.09839 -1.47109
|  5> C -1.67293 -2.05628 -1.43646
|  6> C -1.18826 -0.87324 -0.59267
|  7> O 0.24910 -0.86083 -0.58126
|  8> C 0.74145 0.22661 0.19535
|  9> C 2.26436 0.20042 0.17824
| 10> O 2.77152 1.28738 0.95584
| 11> C 4.19678 1.29917 0.96442
| 12> C 4.67809 2.47417 1.80669
| 13> O 6.10560 2.49630 1.82235
| 14> C 6.59861 3.58353 2.60281
| 15> C 8.12207 3.56063 2.58540
| 16> O 8.62222 4.64649 3.36538
| 17> C 10.04924 4.66424 3.37540
| 18> C 10.52868 5.83824 4.22063
| 19> O 11.95561 5.86373 4.23633
| 20> C 12.44513 6.94678 5.01561
| 21> H -1.23403 -1.96918 -2.43840
| 22> H -1.23763 -2.97570 -1.02500
| 23> H -1.54715 -0.95960 0.44092
| 24> H -1.54444 0.07613 -1.01266
| 25> H 0.38153 0.14886 1.22839
| 26> H 0.38296 1.17863 -0.21391
| 27> H 2.62565 0.27842 -0.85434
| 28> H 2.62437 -0.75168 0.58657
| 29> H 4.58052 1.39308 -0.05851
| 30> H 4.58052 0.36062 1.38195
| 31> H 4.29273 2.38020 2.82917
| 32> H 4.29240 3.41233 1.38961
| 33> H 6.23726 3.50179 3.63500
| 34> H 6.23696 4.53498 2.19536
| 35> H 8.48242 3.64181 1.55282
| 36> H 8.48332 2.60825 2.99176
| 37> H 10.43216 4.76135 2.35235
| 38> H 10.43485 3.72517 3.78997
| 39> H 10.14334 5.74062 5.24274
| 40> H 10.14065 6.77638 3.80588
| 41> H 13.53774 6.91991 4.99421
| 42> H 12.11333 6.85223 6.05407
| 43> H 12.11066 7.90131 4.59783
| 44> **                         ****END OF INPUT****
================================================================================

                       *****************************
                       * Geometry Optimization Run *
                       *****************************

Geometry optimization settings:
Update method            Update   .... BFGS
Choice of coordinates    CoordSys .... Redundant Internals
Initial Hessian          InHess   .... Almoef's Model

Convergence Tolerances:
Energy Change            TolE     ....  5.0000e-06 Eh
Max. Gradient            TolMAXG  ....  3.0000e-04 Eh/bohr
RMS Gradient             TolRMSG  ....  1.0000e-04 Eh/bohr
Max. Displacement        TolMAXD  ....  4.0000e-03 bohr
RMS Displacement         TolRMSD  ....  2.0000e-03 bohr

------------------------------------------------------------------------------
                        ORCA OPTIMIZATION COORDINATE SETUP
------------------------------------------------------------------------------

The optimization will be done in new redundant internal coordinates
Making redundant internal coordinates   ...  (new redundants) done
Evaluating the initial hessian          ...  (Almloef) done
Evaluating the coordinates              ...  done
Calculating the B-matrix                .... done
Calculating the G-matrix                .... done
Diagonalizing the G-matrix              .... done
Small eigenvalue found = 5.498e-04
Small eigenvalue found = 2.439e-03
Small eigenvalue found = 3.721e-03
Small eigenvalue found = 1.092e-02
Small eigenvalue found = 1.352e-02
Small eigenvalue found = 1.439e-02
Small eigenvalue found = 1.833e-02
The first mode is                       ....   71
The number of degrees of freedom        ....  114

    -----------------------------------------------------------------
                    Redundant Internal Coordinates


    -----------------------------------------------------------------
         Definition                    Initial Value    Approx d2E/dq
    -----------------------------------------------------------------
      1. B(C   1,S   0)                  1.8380         0.324902   
      2. B(C   2,C   1)                  1.5318         0.371086   
      3. B(O   3,C   2)                  1.4375         0.470065   
      4. B(C   4,O   3)                  1.4241         0.493711   
      5. B(C   5,C   4)                  1.5232         0.382980   
      6. B(O   6,C   5)                  1.4295         0.484083   
      7. B(C   7,O   6)                  1.4253         0.491475   
      8. B(C   8,C   7)                  1.5237         0.382302   
      9. B(O   9,C   8)                  1.4278         0.487102   
     10. B(C  10,O   9)                  1.4263         0.489789   
     11. B(C  11,C  10)                  1.5237         0.382277   
     12. B(O  12,C  11)                  1.4274         0.487672   
     13. B(C  13,O  12)                  1.4272         0.488180   
     14. B(C  14,C  13)                  1.5240         0.381911   
     15. B(O  15,C  14)                  1.4272         0.488040   
     16. B(C  16,O  15)                  1.4212         0.498936   
     17. B(H  17,C   1)                  1.0973         0.350550   
     18. B(H  18,C   1)                  1.0973         0.350541   
     19. B(H  19,C   2)                  1.0975         0.350277   
     20. B(H  20,C   2)                  1.0975         0.350283   
     21. B(H  21,C   4)                  1.0967         0.351340   
     22. B(H  22,C   4)                  1.0965         0.351580   
     23. B(H  23,C   5)                  1.0967         0.351295   
     24. B(H  24,C   5)                  1.0967         0.351295   
     25. B(H  25,C   7)                  1.0966         0.351515   
     26. B(H  26,C   7)                  1.0966         0.351514   
     27. B(H  27,C   8)                  1.0967         0.351317   
     28. B(H  28,C   8)                  1.0967         0.351283   
     29. B(H  29,C  10)                  1.0967         0.351392   
     30. B(H  30,C  10)                  1.0964         0.351750   
     31. B(H  31,C  11)                  1.0967         0.351396   
     32. B(H  32,C  11)                  1.0967         0.351400   
     33. B(H  33,C  13)                  1.0967         0.351381   
     34. B(H  34,C  13)                  1.0965         0.351542   
     35. B(H  35,C  14)                  1.0967         0.351360   
     36. B(H  36,C  14)                  1.0967         0.351380   
     37. B(H  37,C  16)                  1.0931         0.355957   
     38. B(H  38,C  16)                  1.0943         0.354493   
     39. B(H  39,C  16)                  1.0943         0.354429   
     40. A(S   0,C   1,H  18)          112.6057         0.331525   
     41. A(C   2,C   1,H  18)          108.3631         0.322537   
     42. A(S   0,C   1,H  17)          112.6074         0.331527   
     43. A(H  17,C   1,H  18)          104.4902         0.288397   
     44. A(S   0,C   1,C   2)          110.1412         0.373050   
     45. A(C   2,C   1,H  17)          108.3674         0.322538   
     46. A(H  19,C   2,H  20)          108.8033         0.288329   
     47. A(C   1,C   2,H  19)          110.7640         0.322497   
     48. A(C   1,C   2,H  20)          110.7679         0.322498   
     49. A(O   3,C   2,H  20)          108.6676         0.333307   
     50. A(O   3,C   2,H  19)          108.6738         0.333306   
     51. A(C   1,C   2,O   3)          109.1122         0.375184   
     52. A(C   2,O   3,C   4)          110.8930         0.391777   
     53. A(H  21,C   4,H  22)          107.8079         0.288633   
     54. A(C   5,C   4,H  21)          109.7232         0.324332   
     55. A(O   3,C   4,H  22)          110.2675         0.336243   
     56. A(C   5,C   4,H  22)          109.7308         0.324368   
     57. A(O   3,C   4,C   5)          109.0504         0.380455   
     58. A(O   3,C   4,H  21)          110.2478         0.336204   
     59. A(C   4,C   5,H  23)          109.7980         0.324325   
     60. A(C   4,C   5,O   6)          109.6049         0.379159   
     61. A(H  23,C   5,H  24)          107.7064         0.288590   
     62. A(O   6,C   5,H  24)          109.9454         0.335098   
     63. A(C   4,C   5,H  24)          109.8117         0.324325   
     64. A(O   6,C   5,H  23)          109.9502         0.335098   
     65. A(C   5,O   6,C   7)          111.3668         0.393485   
     66. A(O   6,C   7,C   8)          109.0001         0.380039   
     67. A(C   8,C   7,H  26)          109.8161         0.324264   
     68. A(H  25,C   7,H  26)          107.8200         0.288647   
     69. A(O   6,C   7,H  26)          110.1903         0.335978   
     70. A(C   8,C   7,H  25)          109.8204         0.324264   
     71. A(O   6,C   7,H  25)          110.1831         0.335978   
     72. A(H  27,C   8,H  28)          107.7143         0.288591   
     73. A(O   9,C   8,H  28)          110.0302         0.335442   
     74. A(C   7,C   8,H  28)          109.7757         0.324228   
     75. A(O   9,C   8,H  27)          110.0240         0.335448   
     76. A(C   7,C   8,H  27)          109.7727         0.324234   
     77. A(C   7,C   8,O   9)          109.5019         0.379451   
     78. A(C   8,O   9,C  10)          111.3103         0.393676   
     79. A(H  29,C  10,H  30)          107.8049         0.288661   
     80. A(C  11,C  10,H  30)          109.7912         0.324296   
     81. A(O   9,C  10,H  30)          110.1294         0.335824   
     82. A(C  11,C  10,H  29)          109.8205         0.324241   
     83. A(O   9,C  10,H  29)          110.1403         0.335767   
     84. A(O   9,C  10,C  11)          109.1410         0.379808   
     85. A(H  31,C  11,H  32)          107.7544         0.288617   
     86. A(O  12,C  11,H  32)          110.0434         0.335526   
     87. A(C  10,C  11,H  32)          109.7654         0.324243   
     88. A(O  12,C  11,H  31)          110.0625         0.335525   
     89. A(C  10,C  11,H  31)          109.7658         0.324242   
     90. A(C  10,C  11,O  12)          109.4292         0.379523   
     91. A(C  11,O  12,C  13)          111.3240         0.393530   
     92. A(H  33,C  13,H  34)          107.8023         0.288633   
     93. A(O  12,C  13,H  34)          110.0979         0.335607   
     94. A(C  14,C  13,H  33)          109.8357         0.324189   
     95. A(O  12,C  13,H  33)          110.1013         0.335581   
     96. A(O  12,C  13,C  14)          109.1497         0.379529   
     97. A(C  14,C  13,H  34)          109.8404         0.324213   
     98. A(C  13,C  14,H  36)          109.7505         0.324189   
     99. A(O  15,C  14,H  35)          110.0370         0.335562   
    100. A(C  13,C  14,H  35)          109.7423         0.324186   
    101. A(C  13,C  14,O  15)          109.5351         0.379510   
    102. A(H  35,C  14,H  36)          107.7157         0.288609   
    103. A(O  15,C  14,H  36)          110.0371         0.335565   
    104. A(C  14,O  15,C  16)          111.3460         0.395088   
    105. A(H  38,C  16,H  39)          110.1813         0.289403   
    106. A(H  37,C  16,H  39)          108.6301         0.289590   
    107. A(O  15,C  16,H  39)          110.4935         0.337285   
    108. A(H  37,C  16,H  38)          108.6339         0.289598   
    109. A(O  15,C  16,H  38)          110.4913         0.337296   
    110. A(O  15,C  16,H  37)          108.3486         0.337527   
    111. D(H  19,C   2,C   1,H  17)   -175.9655         0.011004   
    112. D(H  20,C   2,C   1,H  18)    176.0380         0.011004   
    113. D(H  20,C   2,C   1,H  17)     63.2077         0.011004   
    114. D(O   3,C   2,C   1,S   0)   -179.9636         0.011004   
    115. D(H  19,C   2,C   1,S   0)     60.4472         0.011004   
    116. D(H  20,C   2,C   1,S   0)    -60.3797         0.011004   
    117. D(H  19,C   2,C   1,H  18)    -63.1352         0.011004   
    118. D(O   3,C   2,C   1,H  18)     56.4540         0.011004   
    119. D(O   3,C   2,C   1,H  17)    -56.3763         0.011004   
    120. D(C   4,O   3,C   2,H  19)    -59.0929         0.017417   
    121. D(C   4,O   3,C   2,H  20)     59.1564         0.017417   
    122. D(C   4,O   3,C   2,C   1)   -179.9677         0.017417   
    123. D(H  22,C   4,O   3,C   2)    -59.4160         0.019256   
    124. D(H  21,C   4,O   3,C   2)     59.5112         0.019256   
    125. D(C   5,C   4,O   3,C   2)   -179.9632         0.019256   
    126. D(H  24,C   5,C   4,H  22)   -179.9524         0.011681   
    127. D(H  24,C   5,C   4,O   3)    -59.0763         0.011681   
    128. D(H  23,C   5,C   4,H  22)    -61.7058         0.011681   
    129. D(H  23,C   5,C   4,H  21)   -179.9827         0.011681   
    130. D(O   6,C   5,C   4,H  22)     59.1696         0.011681   
    131. D(O   6,C   5,C   4,H  21)    -59.1073         0.011681   
    132. D(H  24,C   5,C   4,H  21)     61.7708         0.011681   
    133. D(O   6,C   5,C   4,O   3)   -179.9544         0.011681   
    134. D(H  23,C   5,C   4,O   3)     59.1702         0.011681   
    135. D(C   7,O   6,C   5,C   4)   -179.9523         0.018493   
    136. D(C   7,O   6,C   5,H  23)    -59.1691         0.018493   
    137. D(C   7,O   6,C   5,H  24)     59.2506         0.018493   
    138. D(H  26,C   7,O   6,C   5)    -59.3724         0.019077   
    139. D(H  25,C   7,O   6,C   5)     59.4812         0.019077   
    140. D(C   8,C   7,O   6,C   5)   -179.9452         0.019077   
    141. D(O   9,C   8,C   7,O   6)   -179.9885         0.011641   
    142. D(H  28,C   8,C   7,H  25)     61.7027         0.011641   
    143. D(H  28,C   8,C   7,O   6)    -59.0934         0.011641   
    144. D(H  27,C   8,C   7,H  26)    -61.6764         0.011641   
    145. D(H  27,C   8,C   7,H  25)    179.9220         0.011641   
    146. D(H  27,C   8,C   7,O   6)     59.1259         0.011641   
    147. D(O   9,C   8,C   7,H  26)     59.2091         0.011641   
    148. D(H  28,C   8,C   7,H  26)   -179.8957         0.011641   
    149. D(O   9,C   8,C   7,H  25)    -59.1925         0.011641   
    150. D(C  10,O   9,C   8,H  28)     59.2983         0.018730   
    151. D(C  10,O   9,C   8,H  27)    -59.2280         0.018730   
    152. D(C  10,O   9,C   8,C   7)   -179.9610         0.018730   
    153. D(H  30,C  10,O   9,C   8)    -59.3832         0.018943   
    154. D(H  29,C  10,O   9,C   8)     59.3873         0.018943   
    155. D(C  11,C  10,O   9,C   8)   -179.9765         0.018943   
    156. D(H  32,C  11,C  10,H  30)   -179.9236         0.011640   
    157. D(H  32,C  11,C  10,H  29)     61.7084         0.011640   
    158. D(H  32,C  11,C  10,O   9)    -59.1233         0.011640   
    159. D(H  31,C  11,C  10,H  30)    -61.6656         0.011640   
    160. D(H  31,C  11,C  10,H  29)    179.9663         0.011640   
    161. D(H  31,C  11,C  10,O   9)     59.1346         0.011640   
    162. D(O  12,C  11,C  10,H  30)     59.2173         0.011640   
    163. D(O  12,C  11,C  10,H  29)    -59.1507         0.011640   
    164. D(O  12,C  11,C  10,O   9)   -179.9824         0.011640   
    165. D(C  13,O  12,C  11,H  32)     59.3744         0.018775   
    166. D(C  13,O  12,C  11,H  31)    -59.2330         0.018775   
    167. D(C  13,O  12,C  11,C  10)   -179.9356         0.018775   
    168. D(H  34,C  13,O  12,C  11)    -59.3012         0.018815   
    169. D(H  33,C  13,O  12,C  11)     59.4226         0.018815   
    170. D(C  14,C  13,O  12,C  11)   -179.9412         0.018815   
    171. D(O  15,C  14,C  13,H  34)     59.1991         0.011619   
    172. D(O  15,C  14,C  13,H  33)    -59.2048         0.011619   
    173. D(O  15,C  14,C  13,O  12)    179.9965         0.011619   
    174. D(H  36,C  14,C  13,H  34)   -179.8921         0.011619   
    175. D(H  36,C  14,C  13,H  33)     61.7040         0.011619   
    176. D(H  36,C  14,C  13,O  12)    -59.0947         0.011619   
    177. D(H  35,C  14,C  13,H  34)    -61.7044         0.011619   
    178. D(H  35,C  14,C  13,H  33)    179.8917         0.011619   
    179. D(H  35,C  14,C  13,O  12)     59.0930         0.011619   
    180. D(C  16,O  15,C  14,H  36)     59.2517         0.018804   
    181. D(C  16,O  15,C  14,H  35)    -59.2886         0.018804   
    182. D(C  16,O  15,C  14,C  13)    179.9866         0.018804   
    183. D(H  39,C  16,O  15,C  14)    -61.1007         0.019678   
    184. D(H  38,C  16,O  15,C  14)     61.0979         0.019678   
    185. D(H  37,C  16,O  15,C  14)   -179.9998         0.019678   
    -----------------------------------------------------------------

Number of atoms                         .... 40
Number of degrees of freedom            .... 185

         *************************************************************
         *                GEOMETRY OPTIMIZATION CYCLE   1            *
         *************************************************************
---------------------------------
CARTESIAN COORDINATES (ANGSTROEM)
---------------------------------
  S     -3.510120   -2.098390   -1.471090
  C     -1.672930   -2.056280   -1.436460
  C     -1.188260   -0.873240   -0.592670
  O      0.249100   -0.860830   -0.581260
  C      0.741450    0.226610    0.195350
  C      2.264360    0.200420    0.178240
  O      2.771520    1.287380    0.955840
  C      4.196780    1.299170    0.964420
  C      4.678090    2.474170    1.806690
  O      6.105600    2.496300    1.822350
  C      6.598610    3.583530    2.602810
  C      8.122070    3.560630    2.585400
  O      8.622220    4.646490    3.365380
  C     10.049240    4.664240    3.375400
  C     10.528680    5.838240    4.220630
  O     11.955610    5.863730    4.236330
  C     12.445130    6.946780    5.015610
  H     -1.234030   -1.969180   -2.438400
  H     -1.237630   -2.975700   -1.025000
  H     -1.547150   -0.959600    0.440920
  H     -1.544440    0.076130   -1.012660
  H      0.381530    0.148860    1.228390
  H      0.382960    1.178630   -0.213910
  H      2.625650    0.278420   -0.854340
  H      2.624370   -0.751680    0.586570
  H      4.580520    1.393080   -0.058510
  H      4.580520    0.360620    1.381950
  H      4.292730    2.380200    2.829170
  H      4.292400    3.412330    1.389610
  H      6.237260    3.501790    3.635000
  H      6.236960    4.534980    2.195360
  H      8.482420    3.641810    1.552820
  H      8.483320    2.608250    2.991760
  H     10.432160    4.761350    2.352350
  H     10.434850    3.725170    3.789970
  H     10.143340    5.740620    5.242740
  H     10.140650    6.776380    3.805880
  H     13.537740    6.919910    4.994210
  H     12.113330    6.852230    6.054070
  H     12.110660    7.901310    4.597830

----------------------------
CARTESIAN COORDINATES (A.U.)
----------------------------
  NO LB      ZA    FRAG     MASS         X           Y           Z
   0 S    16.0000    0    32.060   -6.633165   -3.965382   -2.779957
   1 C     6.0000    0    12.011   -3.161380   -3.885806   -2.714516
   2 C     6.0000    0    12.011   -2.245486   -1.650184   -1.119984
   3 O     8.0000    0    15.999    0.470731   -1.626733   -1.098422
   4 C     6.0000    0    12.011    1.401137    0.428231    0.369158
   5 C     6.0000    0    12.011    4.279020    0.378739    0.336825
   6 O     8.0000    0    15.999    5.237414    2.432796    1.806276
   7 C     6.0000    0    12.011    7.930765    2.455076    1.822490
   8 C     6.0000    0    12.011    8.840309    4.675504    3.414149
   9 O     8.0000    0    15.999   11.537912    4.717323    3.443742
  10 C     6.0000    0    12.011   12.469566    6.771890    4.918598
  11 C     6.0000    0    12.011   15.348488    6.728616    4.885698
  12 O     8.0000    0    15.999   16.293634    8.780594    6.359647
  13 C     6.0000    0    12.011   18.990311    8.814136    6.378582
  14 C     6.0000    0    12.011   19.896322   11.032675    7.975835
  15 O     8.0000    0    15.999   22.592829   11.080844    8.005504
  16 C     6.0000    0    12.011   23.517887   13.127512    9.478129
  17 H     1.0000    0     1.008   -2.331979   -3.721211   -4.607908
  18 H     1.0000    0     1.008   -2.338782   -5.623258   -1.936969
  19 H     1.0000    0     1.008   -2.923690   -1.813381    0.833218
  20 H     1.0000    0     1.008   -2.918569    0.143865   -1.913650
  21 H     1.0000    0     1.008    0.720987    0.281305    2.321321
  22 H     1.0000    0     1.008    0.723690    2.227288   -0.404231
  23 H     1.0000    0     1.008    4.961759    0.526138   -1.614469
  24 H     1.0000    0     1.008    4.959341   -1.420469    1.108457
  25 H     1.0000    0     1.008    8.655928    2.632540   -0.110568
  26 H     1.0000    0     1.008    8.655928    0.681473    2.611507
  27 H     1.0000    0     1.008    8.112084    4.497926    5.346356
  28 H     1.0000    0     1.008    8.111460    6.448369    2.625982
  29 H     1.0000    0     1.008   11.786713    6.617424    6.869154
  30 H     1.0000    0     1.008   11.786146    8.569870    4.148629
  31 H     1.0000    0     1.008   16.029451    6.882024    2.934405
  32 H     1.0000    0     1.008   16.031152    4.928878    5.653607
  33 H     1.0000    0     1.008   19.713925    8.997648    4.445297
  34 H     1.0000    0     1.008   19.719009    7.039551    7.162005
  35 H     1.0000    0     1.008   19.168135   10.848200    9.907343
  36 H     1.0000    0     1.008   19.163051   12.805502    7.192071
  37 H     1.0000    0     1.008   25.582621   13.076735    9.437689
  38 H     1.0000    0     1.008   22.890876   12.948838   11.440534
  39 H     1.0000    0     1.008   22.885831   14.931312    8.688640

--------------------------------
INTERNAL COORDINATES (ANGSTROEM)
--------------------------------
 S      0   0   0     0.000000000000     0.00000000     0.00000000
 C      1   0   0     1.837998798993     0.00000000     0.00000000
 C      2   1   0     1.531819249977   110.14121056     0.00000000
 O      3   2   1     1.437458857081   109.11223957   180.03635082
 C      4   3   2     1.424098791587   110.89304946   180.03233476
 C      5   4   3     1.523231281290   109.05040452   180.03682070
 O      6   5   4     1.429459711639   109.60489730   180.04561832
 C      7   6   5     1.425334588123   111.36680008   180.04769612
 C      8   7   6     1.523713578400   109.00006577   180.05479180
 O      9   8   7     1.427767408439   109.50189563   180.01148056
 C     10   9   8     1.426269870887   111.31029738   180.03899149
 C     11  10   9     1.523731567468   109.14097751   180.02350649
 O     12  11  10     1.427449040246   109.42921754   180.01757473
 C     13  12  11     1.427165562680   111.32402576   180.06444109
 C     14  13  12     1.523992279016   109.14970633   180.05882105
 O     15  14  13     1.427244006819   109.53511423   179.99650252
 C     16  15  14     1.421233426042   111.34598560   179.98660497
 H      2   1   3     1.097316446427   112.60741607   238.91597206
 H      2   1   3     1.097323360728   112.60565328   121.07741697
 H      3   2   1     1.097528300227   110.76395705    60.44717332
 H      3   2   1     1.097524117913   110.76794729   299.62034890
 H      5   4   3     1.096703747828   110.24779035    59.51124604
 H      5   4   3     1.096517627811   110.26751301   300.58402092
 H      6   5   4     1.096738765842   109.79801999    59.17019345
 H      6   5   4     1.096738345732   109.81169861   300.92367170
 H      8   7   6     1.096567946185   110.18308210    59.48122493
 H      8   7   6     1.096569099966   110.19034190   300.62761758
 H      9   8   7     1.096721496507   109.77268986    59.12592417
 H      9   8   7     1.096748233689   109.77567507   300.90662478
 H     11  10   9     1.096663779925   110.14027178    59.38734596
 H     11  10   9     1.096386486372   110.12942291   300.61682474
 H     12  11  10     1.096660280716   109.76576819    59.13460709
 H     12  11  10     1.096657501912   109.76537195   300.87666761
 H     14  13  12     1.096671956877   110.10133708    59.42261114
 H     14  13  12     1.096547227392   110.09793046   300.69878288
 H     15  14  13     1.096688393346   109.74233111    59.09298179
 H     15  14  13     1.096672924349   109.75046564   300.90528834
 H     17  16  15     1.093149838311   108.34859985   180.00023826
 H     17  16  15     1.094271499263   110.49127415    61.09785253
 H     17  16  15     1.094320716335   110.49347187   298.89931475

---------------------------
INTERNAL COORDINATES (A.U.)
---------------------------
 S      0   0   0     0.000000000000     0.00000000     0.00000000
 C      1   0   0     3.473314364573     0.00000000     0.00000000
 C      2   1   0     2.894718869125   110.14121056     0.00000000
 O      3   2   1     2.716403568662   109.11223957   180.03635082
 C      4   3   2     2.691156703748   110.89304946   180.03233476
 C      5   4   3     2.878489960260   109.05040452   180.03682070
 O      6   5   4     2.701287374472   109.60489730   180.04561832
 C      7   6   5     2.693492020758   111.36680008   180.04769612
 C      8   7   6     2.879401369713   109.00006577   180.05479180
 O      9   8   7     2.698089384888   109.50189563   180.01148056
 C     10   9   8     2.695259449040   111.31029738   180.03899149
 C     11  10   9     2.879435364126   109.14097751   180.02350649
 O     12  11  10     2.697487756194   109.42921754   180.01757473
 C     13  12  11     2.696952061229   111.32402576   180.06444109
 C     14  13  12     2.879928037551   109.14970633   180.05882105
 O     15  14  13     2.697100299168   109.53511423   179.99650252
 C     16  15  14     2.685741947595   111.34598560   179.98660497
 H      2   1   3     2.073627565995   112.60741607   238.91597206
 H      2   1   3     2.073640632131   112.60565328   121.07741697
 H      3   2   1     2.074027911658   110.76395705    60.44717332
 H      3   2   1     2.074020008228   110.76794729   299.62034890
 H      5   4   3     2.072469733440   110.24779035    59.51124604
 H      5   4   3     2.072118017580   110.26751301   300.58402092
 H      6   5   4     2.072535907896   109.79801999    59.17019345
 H      6   5   4     2.072535114004   109.81169861   300.92367170
 H      8   7   6     2.072213105526   110.18308210    59.48122493
 H      8   7   6     2.072215285856   110.19034190   300.62761758
 H      9   8   7     2.072503273582   109.77268986    59.12592417
 H      9   8   7     2.072553799534   109.77567507   300.90662478
 H     11  10   9     2.072394205050   110.14027178    59.38734596
 H     11  10   9     2.071870196176   110.12942291   300.61682474
 H     12  11  10     2.072387592502   109.76576819    59.13460709
 H     12  11  10     2.072382341324   109.76537195   300.87666761
 H     14  13  12     2.072409657249   110.10133708    59.42261114
 H     14  13  12     2.072173952681   110.09793046   300.69878288
 H     15  14  13     2.072440717674   109.74233111    59.09298179
 H     15  14  13     2.072411485506   109.75046564   300.90528834
 H     17  16  15     2.065753817749   108.34859985   180.00023826
 H     17  16  15     2.067873449763   110.49127415    61.09785253
 H     17  16  15     2.067966456550   110.49347187   298.89931475

---------------------
BASIS SET INFORMATION
---------------------
There are 4 groups of distinct atoms

 Group   1 Type S   : 17s11p1d contracted to 5s4p1d pattern {66311/6311/1}
 Group   2 Type C   : 11s5p1d contracted to 4s3p1d pattern {6311/311/1}
 Group   3 Type O   : 11s5p1d contracted to 4s3p1d pattern {6311/311/1}
 Group   4 Type H   : 4s1p contracted to 2s1p pattern {31/1}

Atom   0S    basis set group =>   1
Atom   1C    basis set group =>   2
Atom   2C    basis set group =>   2
Atom   3O    basis set group =>   3
Atom   4C    basis set group =>   2
Atom   5C    basis set group =>   2
Atom   6O    basis set group =>   3
Atom   7C    basis set group =>   2
Atom   8C    basis set group =>   2
Atom   9O    basis set group =>   3
Atom  10C    basis set group =>   2
Atom  11C    basis set group =>   2
Atom  12O    basis set group =>   3
Atom  13C    basis set group =>   2
Atom  14C    basis set group =>   2
Atom  15O    basis set group =>   3
Atom  16C    basis set group =>   2
Atom  17H    basis set group =>   4
Atom  18H    basis set group =>   4
Atom  19H    basis set group =>   4
Atom  20H    basis set group =>   4
Atom  21H    basis set group =>   4
Atom  22H    basis set group =>   4
Atom  23H    basis set group =>   4
Atom  24H    basis set group =>   4
Atom  25H    basis set group =>   4
Atom  26H    basis set group =>   4
Atom  27H    basis set group =>   4
Atom  28H    basis set group =>   4
Atom  29H    basis set group =>   4
Atom  30H    basis set group =>   4
Atom  31H    basis set group =>   4
Atom  32H    basis set group =>   4
Atom  33H    basis set group =>   4
Atom  34H    basis set group =>   4
Atom  35H    basis set group =>   4
Atom  36H    basis set group =>   4
Atom  37H    basis set group =>   4
Atom  38H    basis set group =>   4
Atom  39H    basis set group =>   4
[file orca_main/mainfcts.cpp, line 334]: Error : multiplicity (1) is odd and number of electrons (145) is odd -> impossible

