
                                 *****************
                                 * O   R   C   A *
                                 *****************

           --- An Ab Initio, DFT and Semiempirical electronic structure package ---

                  #######################################################
                  #                        -***-                        #
                  #  Department of molecular theory and spectroscopy    #
                  #              Directorship: Frank Neese              #
                  # Max Planck Institute for Chemical Energy Conversion #
                  #                  D-45470 Muelheim/Ruhr              #
                  #                       Germany                       #
                  #                                                     #
                  #                  All rights reserved                #
                  #                        -***-                        #
                  #######################################################


                         Program Version 4.0.1.2 - RELEASE -


 With contributions from (in alphabetic order):
   Daniel Aravena         : Magnetic Properties
   Michael Atanasov       : Ab Initio Ligand Field Theory
   Ute Becker             : Parallelization
   Martin Brehm           : Molecular dynamics
   Dmytro Bykov           : SCF Hessian
   Vijay G. Chilkuri      : MRCI spin determinant printing
   Dipayan Datta          : RHF DLPNO-CCSD density
   Achintya Kumar Dutta   : EOM-CC, STEOM-CC
   Dmitry Ganyushin       : Spin-Orbit,Spin-Spin,Magnetic field MRCI
   Yang Guo               : DLPNO-NEVPT2, CIM, IAO-localization
   Andreas Hansen         : Spin unrestricted coupled pair/coupled cluster methods
   Lee Huntington         : MR-EOM, pCC
   Robert Izsak           : Overlap fitted RIJCOSX, COSX-SCS-MP3, EOM
   Christian Kollmar      : KDIIS, OOCD, Brueckner-CCSD(T), CCSD density
   Simone Kossmann        : Meta GGA functionals, TD-DFT gradient, OOMP2, MP2 Hessian
   Martin Krupicka        : AUTO-CI
   Dagmar Lenk            : GEPOL surface
   Dimitrios Liakos       : Extrapolation schemes; parallel MDCI
   Dimitrios Manganas     : ROCIS; embedding schemes
   Dimitrios Pantazis     : SARC Basis sets
   Taras Petrenko         : DFT Hessian,TD-DFT gradient, ASA, ECA, R-Raman, ABS, FL, XAS/XES, NRVS
   Peter Pinski           : DLPNO-MP2
   Christoph Reimann      : Effective Core Potentials
   Marius Retegan         : Local ZFS, SOC
   Christoph Riplinger    : Optimizer, TS searches, QM/MM, DLPNO-CCSD(T), (RO)-DLPNO pert. Triples
   Tobias Risthaus        : Range-separated hybrids, TD-DFT gradient, RPA, STAB
   Michael Roemelt        : Restricted open shell CIS
   Masaaki Saitow         : Open-shell DLPNO
   Barbara Sandhoefer     : DKH picture change effects
   Kantharuban Sivalingam : CASSCF convergence, NEVPT2, FIC-MRCI
   Georgi Stoychev        : AutoAux
   Boris Wezisla          : Elementary symmetry handling
   Frank Wennmohs         : Technical directorship


 We gratefully acknowledge several colleagues who have allowed us to
 interface, adapt or use parts of their codes:
   Stefan Grimme, W. Hujo, H. Kruse,             : VdW corrections, initial TS optimization,
                  C. Bannwarth                     DFT functionals, gCP, sTDA/sTD-DF
   Ed Valeev                                     : LibInt (2-el integral package), F12 methods
   Garnet Chan, S. Sharma, J. Yang, R. Olivares  : DMRG
   Ulf Ekstrom                                   : XCFun DFT Library
   Mihaly Kallay                                 : mrcc  (arbitrary order and MRCC methods)
   Andreas Klamt, Michael Diedenhofen            : otool_cosmo (COSMO solvation model)
   Jiri Pittner, Ondrej Demel                    : Mk-CCSD
   Frank Weinhold                                : gennbo (NPA and NBO analysis)
   Christopher J. Cramer and Donald G. Truhlar   : smd solvation model


 Your calculation uses the libint2 library for the computation of 2-el integrals
 For citations please refer to: http://libint.valeyev.net

 This ORCA versions uses:
   CBLAS   interface :  Fast vector & matrix operations
   LAPACKE interface :  Fast linear algebra routines
   SCALAPACK package :  Parallel linear algebra routines


Your calculation utilizes the basis: 6-31+G**
   H-He, Li-Ne : W. J. Hehre, R. Ditchfield and J.A. Pople, J. Chem. Phys. 56, 2257 (1972).
                 Note: He and Ne are unpublished basis sets taken from the Gaussian program.
                 Note: Li and B from J. D. Dill and J. A. Pople, J. Chem. Phys. 62, 2921 (1975).
   Na - Ar     : M. M. Francl, W. J. Pietro, W. J. Hehre, J. S. Binkley, M. S. Gordon, 
                 D. J. DeFrees and J. A. Pople, J. Chem. Phys. 77, 3654 (1982).
   K - Zn      : V. A. Rassolov, J. A. Pople, M. A. Ratner, and T. L. Windus, J. Chem. Phys. 109, 1223 (1998).
   Additional Pol./Diff. from the 6-311G equivalent.

================================================================================
                                        WARNINGS
                       Please study these warnings very carefully!
================================================================================

Warning: TCutStore was < 0. Adjusted to Thresh (uncritical)

WARNING: Geometry Optimization
  ===> : Switching off AutoStart
         For restart on a previous wavefunction, please use MOREAD

INFO   : the flag for use of LIBINT has been found!

================================================================================
                                       INPUT FILE
================================================================================
NAME = OEG3.inp
|  1> ! RKS B3LYP 6-31+G** NormalSCF Opt NOSOSCF CHELPG
|  2> 
|  3> *xyz 0 1
|  4> S -1.09620 0.88618 -2.07485
|  5> C -1.09620 0.88618 -0.23659
|  6> C 0.03706 0.00067 0.29125
|  7> O 0.01696 0.01505 1.72880
|  8> C 1.05913 -0.79765 2.26043
|  9> C 0.99841 -0.75453 3.78271
| 10> O 2.04055 -1.56683 4.32951
| 11> C 2.01793 -1.55347 5.75573
| 12> C 3.14765 -2.43354 6.27802
| 13> O 3.14038 -2.43231 7.70636
| 14> C 4.18281 -3.24472 8.22883
| 15> H -2.04272 0.52474 0.18487
| 16> H -0.97428 1.89200 0.18483
| 17> H 1.01174 0.37205 -0.05034
| 18> H -0.08675 -1.03461 -0.05146
| 19> H 2.03541 -0.43379 1.91844
| 20> H 0.94706 -1.83223 1.91474
| 21> H 0.02222 -1.11803 4.12557
| 22> H 1.10987 0.27994 4.12940
| 23> H 1.05460 -1.92807 6.12186
| 24> H 2.14271 -0.52893 6.12601
| 25> H 4.10999 -2.05918 5.90825
| 26> H 3.02279 -3.45707 5.90405
| 27> H 4.13298 -3.20919 9.32041
| 28> H 5.15950 -2.86664 7.91151
| 29> H 4.05763 -4.28320 7.90727
| 30> **                         ****END OF INPUT****
================================================================================

                       *****************************
                       * Geometry Optimization Run *
                       *****************************

Geometry optimization settings:
Update method            Update   .... BFGS
Choice of coordinates    CoordSys .... Redundant Internals
Initial Hessian          InHess   .... Almoef's Model

Convergence Tolerances:
Energy Change            TolE     ....  5.0000e-06 Eh
Max. Gradient            TolMAXG  ....  3.0000e-04 Eh/bohr
RMS Gradient             TolRMSG  ....  1.0000e-04 Eh/bohr
Max. Displacement        TolMAXD  ....  4.0000e-03 bohr
RMS Displacement         TolRMSD  ....  2.0000e-03 bohr

------------------------------------------------------------------------------
                        ORCA OPTIMIZATION COORDINATE SETUP
------------------------------------------------------------------------------

The optimization will be done in new redundant internal coordinates
Making redundant internal coordinates   ...  (new redundants) done
Evaluating the initial hessian          ...  (Almloef) done
Evaluating the coordinates              ...  done
Calculating the B-matrix                .... done
Calculating the G-matrix                .... done
Diagonalizing the G-matrix              .... done
Small eigenvalue found = 2.741e-03
Small eigenvalue found = 1.255e-02
Small eigenvalue found = 1.604e-02
Small eigenvalue found = 2.923e-02
The first mode is                       ....   43
The number of degrees of freedom        ....   72

    -----------------------------------------------------------------
                    Redundant Internal Coordinates


    -----------------------------------------------------------------
         Definition                    Initial Value    Approx d2E/dq
    -----------------------------------------------------------------
      1. B(C   1,S   0)                  1.8383         0.324591   
      2. B(C   2,C   1)                  1.5320         0.370841   
      3. B(O   3,C   2)                  1.4378         0.469541   
      4. B(C   4,O   3)                  1.4245         0.492965   
      5. B(C   5,C   4)                  1.5241         0.381759   
      6. B(O   6,C   5)                  1.4300         0.483137   
      7. B(C   7,O   6)                  1.4265         0.489444   
      8. B(C   8,C   7)                  1.5243         0.381440   
      9. B(O   9,C   8)                  1.4284         0.486045   
     10. B(C  10,O   9)                  1.4211         0.499103   
     11. B(H  11,C   1)                  1.0973         0.350513   
     12. B(H  12,C   1)                  1.0973         0.350533   
     13. B(H  13,C   2)                  1.0975         0.350254   
     14. B(H  14,C   2)                  1.0975         0.350268   
     15. B(H  15,C   4)                  1.0966         0.351508   
     16. B(H  16,C   4)                  1.0965         0.351541   
     17. B(H  17,C   5)                  1.0966         0.351415   
     18. B(H  18,C   5)                  1.0967         0.351348   
     19. B(H  19,C   7)                  1.0965         0.351563   
     20. B(H  20,C   7)                  1.0965         0.351575   
     21. B(H  21,C   8)                  1.0968         0.351214   
     22. B(H  22,C   8)                  1.0968         0.351165   
     23. B(H  23,C  10)                  1.0933         0.355768   
     24. B(H  24,C  10)                  1.0943         0.354416   
     25. B(H  25,C  10)                  1.0943         0.354445   
     26. A(S   0,C   1,C   2)          110.1539         0.372946   
     27. A(S   0,C   1,H  11)          112.5862         0.331468   
     28. A(H  11,C   1,H  12)          104.4920         0.288391   
     29. A(C   2,C   1,H  11)          108.3814         0.322497   
     30. A(C   2,C   1,H  12)          108.3790         0.322501   
     31. A(S   0,C   1,H  12)          112.5842         0.331471   
     32. A(C   1,C   2,O   3)          109.1699         0.375069   
     33. A(C   1,C   2,H  13)          110.7384         0.322459   
     34. A(H  13,C   2,H  14)          108.7945         0.288324   
     35. A(O   3,C   2,H  14)          108.6669         0.333243   
     36. A(O   3,C   2,H  13)          108.6759         0.333240   
     37. A(C   1,C   2,H  14)          110.7439         0.322461   
     38. A(C   2,O   3,C   4)          110.9291         0.391597   
     39. A(C   5,C   4,H  16)          109.7245         0.324192   
     40. A(H  15,C   4,H  16)          107.8025         0.288649   
     41. A(O   3,C   4,H  16)          110.2335         0.336152   
     42. A(C   5,C   4,H  15)          109.7295         0.324187   
     43. A(O   3,C   4,H  15)          110.2213         0.336146   
     44. A(O   3,C   4,C   5)          109.1152         0.380145   
     45. A(O   6,C   5,H  18)          109.9298         0.334997   
     46. A(H  17,C   5,H  18)          107.7156         0.288612   
     47. A(O   6,C   5,H  17)          109.9310         0.335008   
     48. A(C   4,C   5,H  17)          109.7768         0.324173   
     49. A(C   4,C   5,H  18)          109.7783         0.324163   
     50. A(C   4,C   5,O   6)          109.6831         0.378821   
     51. A(C   5,O   6,C   7)          111.4346         0.393065   
     52. A(C   8,C   7,H  19)          109.8438         0.324151   
     53. A(O   6,C   7,H  19)          110.1557         0.335754   
     54. A(O   6,C   7,C   8)          108.9909         0.379618   
     55. A(H  19,C   7,H  20)          107.8434         0.288661   
     56. A(C   8,C   7,H  20)          109.8408         0.324153   
     57. A(O   6,C   7,H  20)          110.1559         0.335756   
     58. A(O   9,C   8,H  22)          109.9483         0.335302   
     59. A(C   7,C   8,H  22)          109.7290         0.324090   
     60. A(O   9,C   8,H  21)          109.9562         0.335310   
     61. A(C   7,C   8,H  21)          109.7364         0.324098   
     62. A(C   7,C   8,O   9)          109.7771         0.379160   
     63. A(H  21,C   8,H  22)          107.6644         0.288563   
     64. A(C   8,O   9,C  10)          111.3098         0.394828   
     65. A(H  24,C  10,H  25)          110.1667         0.289395   
     66. A(H  23,C  10,H  25)          108.6033         0.289567   
     67. A(O   9,C  10,H  25)          110.5214         0.337307   
     68. A(H  23,C  10,H  24)          108.6002         0.289564   
     69. A(O   9,C  10,H  24)          110.5213         0.337302   
     70. A(O   9,C  10,H  23)          108.3641         0.337516   
     71. D(H  14,C   2,C   1,H  11)     63.2272         0.010991   
     72. D(O   3,C   2,C   1,H  11)    -56.3776         0.010991   
     73. D(H  13,C   2,C   1,H  11)   -175.9901         0.010991   
     74. D(H  13,C   2,C   1,S   0)     60.4315         0.010991   
     75. D(H  14,C   2,C   1,S   0)    -60.3511         0.010991   
     76. D(O   3,C   2,C   1,S   0)   -179.9559         0.010991   
     77. D(O   3,C   2,C   1,H  12)     56.4698         0.010991   
     78. D(H  13,C   2,C   1,H  12)    -63.1428         0.010991   
     79. D(H  14,C   2,C   1,H  12)    176.0745         0.010991   
     80. D(C   4,O   3,C   2,H  14)     59.1761         0.017378   
     81. D(C   4,O   3,C   2,C   1)   -179.9431         0.017378   
     82. D(C   4,O   3,C   2,H  13)    -59.0635         0.017378   
     83. D(H  16,C   4,O   3,C   2)    -59.3515         0.019196   
     84. D(H  15,C   4,O   3,C   2)     59.5312         0.019196   
     85. D(C   5,C   4,O   3,C   2)   -179.9108         0.019196   
     86. D(H  18,C   5,C   4,H  16)   -179.9695         0.011610   
     87. D(H  18,C   5,C   4,O   3)    -59.0987         0.011610   
     88. D(H  17,C   5,C   4,H  16)    -61.7446         0.011610   
     89. D(H  17,C   5,C   4,H  15)    179.9852         0.011610   
     90. D(O   6,C   5,C   4,H  16)     59.1432         0.011610   
     91. D(O   6,C   5,C   4,H  15)    -59.1270         0.011610   
     92. D(H  18,C   5,C   4,H  15)     61.7602         0.011610   
     93. D(O   6,C   5,C   4,O   3)   -179.9860         0.011610   
     94. D(H  17,C   5,C   4,O   3)     59.1262         0.011610   
     95. D(C   7,O   6,C   5,H  18)     59.2172         0.018419   
     96. D(C   7,O   6,C   5,H  17)    -59.1926         0.018419   
     97. D(C   7,O   6,C   5,C   4)   -179.9872         0.018419   
     98. D(H  20,C   7,O   6,C   5)    -59.4149         0.018915   
     99. D(H  19,C   7,O   6,C   5)     59.4292         0.018915   
    100. D(C   8,C   7,O   6,C   5)   -179.9910         0.018915   
    101. D(O   9,C   8,C   7,O   6)   -179.9937         0.011592   
    102. D(H  22,C   8,C   7,H  19)     61.7159         0.011592   
    103. D(H  22,C   8,C   7,O   6)    -59.0553         0.011592   
    104. D(H  21,C   8,C   7,H  20)    -61.7162         0.011592   
    105. D(H  21,C   8,C   7,H  19)    179.8245         0.011592   
    106. D(H  21,C   8,C   7,O   6)     59.0533         0.011592   
    107. D(O   9,C   8,C   7,H  20)     59.2368         0.011592   
    108. D(H  22,C   8,C   7,H  20)   -179.8248         0.011592   
    109. D(O   9,C   8,C   7,H  19)    -59.2225         0.011592   
    110. D(C  10,O   9,C   8,H  22)     59.1866         0.018647   
    111. D(C  10,O   9,C   8,H  21)    -59.1870         0.018647   
    112. D(C  10,O   9,C   8,C   7)    179.9927         0.018647   
    113. D(H  25,C  10,O   9,C   8)    -61.1145         0.019691   
    114. D(H  24,C  10,O   9,C   8)     61.1048         0.019691   
    115. D(H  23,C  10,O   9,C   8)    179.9933         0.019691   
    -----------------------------------------------------------------

Number of atoms                         .... 26
Number of degrees of freedom            .... 115

         *************************************************************
         *                GEOMETRY OPTIMIZATION CYCLE   1            *
         *************************************************************
---------------------------------
CARTESIAN COORDINATES (ANGSTROEM)
---------------------------------
  S     -1.096200    0.886180   -2.074850
  C     -1.096200    0.886180   -0.236590
  C      0.037060    0.000670    0.291250
  O      0.016960    0.015050    1.728800
  C      1.059130   -0.797650    2.260430
  C      0.998410   -0.754530    3.782710
  O      2.040550   -1.566830    4.329510
  C      2.017930   -1.553470    5.755730
  C      3.147650   -2.433540    6.278020
  O      3.140380   -2.432310    7.706360
  C      4.182810   -3.244720    8.228830
  H     -2.042720    0.524740    0.184870
  H     -0.974280    1.892000    0.184830
  H      1.011740    0.372050   -0.050340
  H     -0.086750   -1.034610   -0.051460
  H      2.035410   -0.433790    1.918440
  H      0.947060   -1.832230    1.914740
  H      0.022220   -1.118030    4.125570
  H      1.109870    0.279940    4.129400
  H      1.054600   -1.928070    6.121860
  H      2.142710   -0.528930    6.126010
  H      4.109990   -2.059180    5.908250
  H      3.022790   -3.457070    5.904050
  H      4.132980   -3.209190    9.320410
  H      5.159500   -2.866640    7.911510
  H      4.057630   -4.283200    7.907270

----------------------------
CARTESIAN COORDINATES (A.U.)
----------------------------
  NO LB      ZA    FRAG     MASS         X           Y           Z
   0 S    16.0000    0    32.060   -2.071518    1.674638   -3.920898
   1 C     6.0000    0    12.011   -2.071518    1.674638   -0.447090
   2 C     6.0000    0    12.011    0.070033    0.001266    0.550383
   3 O     8.0000    0    15.999    0.032050    0.028440    3.266959
   4 C     6.0000    0    12.011    2.001466   -1.507340    4.271594
   5 C     6.0000    0    12.011    1.886721   -1.425855    7.148286
   6 O     8.0000    0    15.999    3.856081   -2.960880    8.181588
   7 C     6.0000    0    12.011    3.813335   -2.935633   10.876753
   8 C     6.0000    0    12.011    5.948196   -4.598724   11.863738
   9 O     8.0000    0    15.999    5.934458   -4.596400   14.562910
  10 C     6.0000    0    12.011    7.904365   -6.131632   15.550235
  11 H     1.0000    0     1.008   -3.860181    0.991615    0.349354
  12 H     1.0000    0     1.008   -1.841122    3.575362    0.349278
  13 H     1.0000    0     1.008    1.911912    0.703073   -0.095129
  14 H     1.0000    0     1.008   -0.163934   -1.955130   -0.097245
  15 H     1.0000    0     1.008    3.846367   -0.819744    3.625326
  16 H     1.0000    0     1.008    1.789684   -3.462413    3.618334
  17 H     1.0000    0     1.008    0.041990   -2.112771    7.796197
  18 H     1.0000    0     1.008    2.097350    0.529010    7.803435
  19 H     1.0000    0     1.008    1.992905   -3.643524   11.568639
  20 H     1.0000    0     1.008    4.049135   -0.999533   11.576481
  21 H     1.0000    0     1.008    7.766756   -3.891286   11.164974
  22 H     1.0000    0     1.008    5.712245   -6.532916   11.157038
  23 H     1.0000    0     1.008    7.810200   -6.064490   17.613022
  24 H     1.0000    0     1.008    9.750042   -5.417165   14.950587
  25 H     1.0000    0     1.008    7.667809   -8.094075   14.942575

--------------------------------
INTERNAL COORDINATES (ANGSTROEM)
--------------------------------
 S      0   0   0     0.000000000000     0.00000000     0.00000000
 C      1   0   0     1.838260000000     0.00000000     0.00000000
 C      2   1   0     1.531999103557   110.15391854     0.00000000
 O      3   2   1     1.437762427142   109.16986560   180.04407573
 C      4   3   2     1.424510461808   110.92912905   180.05688809
 C      5   4   3     1.524100604028   109.11518352   180.08918168
 O      6   5   4     1.429992066272   109.68309965   180.01403487
 C      7   6   5     1.426461931634   111.43455378   180.01284157
 C      8   7   6     1.524328484087   108.99091982   180.00895109
 O      9   8   7     1.428359030986   109.77712377   180.00628802
 C     10   9   8     1.421142221560   111.30978314   179.99266233
 H      2   1   3     1.097345668238   112.58615536   238.90341670
 H      2   1   3     1.097330021097   112.58423318   121.09209792
 H      3   2   1     1.097546324717   110.73838257    60.43150248
 H      3   2   1     1.097535301756   110.74390348   299.64885164
 H      5   4   3     1.096573708467   110.22129790    59.53120944
 H      5   4   3     1.096547781631   110.23350218   300.64851936
 H      6   5   4     1.096645861571   109.77679190    59.12624275
 H      6   5   4     1.096697528309   109.77832355   300.90125879
 H      8   7   6     1.096531361065   110.15574827    59.42920485
 H      8   7   6     1.096521563126   110.15586889   300.58514193
 H      9   8   7     1.096801503509   109.73639751    59.05332754
 H      9   8   7     1.096839660753   109.72897811   300.94471608
 H     11  10   9     1.093294245023   108.36410501   179.99328385
 H     11  10   9     1.094330765765   110.52133549    61.10482994
 H     11  10   9     1.094308720791   110.52136992   298.88546134

---------------------------
INTERNAL COORDINATES (A.U.)
---------------------------
 S      0   0   0     0.000000000000     0.00000000     0.00000000
 C      1   0   0     3.473807962942     0.00000000     0.00000000
 C      2   1   0     2.895058743136   110.15391854     0.00000000
 O      3   2   1     2.716977232939   109.16986560   180.04407573
 C      4   3   2     2.691934647723   110.92912905   180.05688809
 C      5   4   3     2.880132742158   109.11518352   180.08918168
 O      6   5   4     2.702293378934   109.68309965   180.01403487
 C      7   6   5     2.695622391252   111.43455378   180.01284157
 C      8   7   6     2.880563373060   108.99091982   180.00895109
 O      9   8   7     2.699207389477   109.77712377   180.00628802
 C     10   9   8     2.685569596101   111.30978314   179.99266233
 H      2   1   3     2.073682787214   112.58615536   238.90341670
 H      2   1   3     2.073653218403   112.58423318   121.09209792
 H      3   2   1     2.074061973007   110.73838257    60.43150248
 H      3   2   1     2.074041142629   110.74390348   299.64885164
 H      5   4   3     2.072223994660   110.22129790    59.53120944
 H      5   4   3     2.072175000042   110.23350218   300.64851936
 H      6   5   4     2.072360344267   109.77679190    59.12624275
 H      6   5   4     2.072457980253   109.77832355   300.90125879
 H      8   7   6     2.072143969670   110.15574827    59.42920485
 H      8   7   6     2.072125454247   110.15586889   300.58514193
 H      9   8   7     2.072654464905   109.73639751    59.05332754
 H      9   8   7     2.072726571646   109.72897811   300.94471608
 H     11  10   9     2.066026706885   108.36410501   179.99328385
 H     11  10   9     2.067985447220   110.52133549    61.10482994
 H     11  10   9     2.067943788257   110.52136992   298.88546134

---------------------
BASIS SET INFORMATION
---------------------
There are 4 groups of distinct atoms

 Group   1 Type S   : 17s11p1d contracted to 5s4p1d pattern {66311/6311/1}
 Group   2 Type C   : 11s5p1d contracted to 4s3p1d pattern {6311/311/1}
 Group   3 Type O   : 11s5p1d contracted to 4s3p1d pattern {6311/311/1}
 Group   4 Type H   : 4s1p contracted to 2s1p pattern {31/1}

Atom   0S    basis set group =>   1
Atom   1C    basis set group =>   2
Atom   2C    basis set group =>   2
Atom   3O    basis set group =>   3
Atom   4C    basis set group =>   2
Atom   5C    basis set group =>   2
Atom   6O    basis set group =>   3
Atom   7C    basis set group =>   2
Atom   8C    basis set group =>   2
Atom   9O    basis set group =>   3
Atom  10C    basis set group =>   2
Atom  11H    basis set group =>   4
Atom  12H    basis set group =>   4
Atom  13H    basis set group =>   4
Atom  14H    basis set group =>   4
Atom  15H    basis set group =>   4
Atom  16H    basis set group =>   4
Atom  17H    basis set group =>   4
Atom  18H    basis set group =>   4
Atom  19H    basis set group =>   4
Atom  20H    basis set group =>   4
Atom  21H    basis set group =>   4
Atom  22H    basis set group =>   4
Atom  23H    basis set group =>   4
Atom  24H    basis set group =>   4
Atom  25H    basis set group =>   4
[file orca_main/mainfcts.cpp, line 334]: Error : multiplicity (1) is odd and number of electrons (97) is odd -> impossible

