LAMMPS (31 Mar 2017)
  using 1 OpenMP thread(s) per MPI task
Reading restart file ...
  restart file = 31 Mar 2017, LAMMPS = 31 Mar 2017
  orthogonal box = (0 0 0) to (81.6 70.667 100)
  4 by 3 by 1 MPI processor grid
  7856 atoms
  6400 bonds
  11520 angles
  11520 dihedrals
Finding 1-2 1-3 1-4 neighbors ...
  special bond factors lj:   0          0          0.5       
  special bond factors coul: 0          0          0.5       
  4 = max # of 1-2 neighbors
  6 = max # of 1-3 neighbors
  12 = max # of 1-4 neighbors
  14 = max # of special neighbors
1200 atoms in group gold
6656 atoms in group dynamic
Finding SHAKE clusters ...
  0 = # of size 2 clusters
  1536 = # of size 3 clusters
  256 = # of size 4 clusters
  0 = # of frozen angles
Ewald initialization ...
WARNING: System is not charge neutral, net charge = 1.024e-05 (../kspace.cpp:302)
WARNING: Using 12-bit tables for long-range coulomb (../kspace.cpp:321)
  G vector (1/distance) = 0.130214
  estimated absolute RMS force accuracy = 0.0385551
  estimated relative force accuracy = 0.000116108
  KSpace vectors: actual max1d max3d = 472 7 1687
                  kxmax kymax kzmax  = 6 5 7
Neighbor list info ...
  update every 1 steps, delay 0 steps, check yes
  max neighbors/atom: 30000, page size: 300000
  master list distance cutoff = 22
  ghost atom cutoff = 22
  binsize = 11, bins = 8 7 10
  3 neighbor lists, perpetual/occasional/extra = 3 0 0
  (1) pair lj/cut/coul/long, perpetual, skip from (3)
      attributes: half, newton on
      pair build: skip
      stencil: none
      bin: none
  (2) pair morse, perpetual, skip from (3)
      attributes: half, newton on
      pair build: skip
      stencil: none
      bin: none
  (3) neighbor class addition, perpetual
      attributes: half, newton on
      pair build: half/bin/newton
      stencil: half/bin/3d/newton
      bin: standard
Setting up Verlet run ...
  Unit style    : real
  Current step  : 200100
  Time step     : 1
Per MPI rank memory allocation (min/avg/max) = 31.74 | 31.74 | 31.74 Mbytes
Step Temp Density TotEng KinEng PotEng E_bond E_angle E_dihed E_impro E_vdwl E_coul E_long Volume Enthalpy 
  200100    401.29779   0.81276012    5718.6412    7864.9657   -2146.3245    1083.6841    4044.2047     580.0086            0   -9101.2578    4469.7562   -3222.7204    576642.72    10831.751 
  200200    324.17243   0.81276012    4221.6311    6353.3991    -2131.768    1105.4107    4091.9021    583.38097            0   -9133.5756    4442.1961   -3221.0823    576642.72    5768.4465 
  200300    329.91055   0.81276012    4368.7573    6465.8595   -2097.1022    1121.6587    4119.1387    609.54626            0   -9167.1163    4444.0203   -3224.3499    576642.72    6464.0267 
  200400    332.99587   0.81276012    4363.8866    6526.3282   -2162.4416     1092.815    4056.1879    548.64728            0   -9106.4206    4470.1148   -3223.7859    576642.72    6964.0585 
  200500    326.54312   0.81276012    4291.2496    6399.8619   -2108.6123    1093.3391    4122.6617     587.6882            0   -9153.7756    4466.5071   -3225.0328    576642.72    6584.6586 
  200600    323.59417   0.81276012    4244.4018    6342.0658    -2097.664     1103.462    4074.2746    595.08228            0   -9102.1185    4454.9476   -3223.3119    576642.72    6219.2803 
  200700    325.49982   0.81276012      4244.94    6379.4143   -2134.4743    1114.3357    4062.0128    552.12109            0   -9115.9023    4475.6852   -3222.7269    576642.72    6139.6399 
  200800    328.48295   0.81276012    4422.9431    6437.8803   -2014.9372    1100.0211    4174.0284    557.29356            0   -9093.4234     4472.137   -3224.9938    576642.72    7250.4876 
  200900    327.99414   0.81276012    4476.5145    6428.3001   -1951.7857      1089.73    4196.2335    562.55114            0   -9061.0006    4487.4063    -3226.706    576642.72    6796.9149 
  201000    326.95584   0.81276012    4364.3295    6407.9507   -2043.6212    1115.2501    4060.4489    572.37319            0    -9054.544    4488.9954   -3226.1448    576642.72    5728.0472 
  201100    328.20488   0.81276012    4273.7996    6432.4303   -2158.6306    1097.2982    4056.0689    574.35584            0   -9155.8584    4494.6789    -3225.174    576642.72    5046.0806 
  201200    327.16788   0.81276012    4271.1789    6412.1063   -2140.9274     1079.505     4083.564    574.69367            0   -9128.3149    4476.3598   -3226.7349    576642.72    5329.4314 
  201300    328.96189   0.81276012    4351.5082    6447.2668   -2095.7586    1055.2845    4132.3956    566.65597            0   -9104.1283    4478.2516   -3224.2179    576642.72    5631.3084 
  201400    336.15696   0.81276012    4551.0802    6588.2819   -2037.2017    1119.3314    4129.6242    552.99574            0   -9095.0867    4479.3652   -3223.4315    576642.72    6247.0603 
  201500    334.96406   0.81276012    4534.2437    6564.9023   -2030.6586    1087.3514    4108.9428    573.70431            0   -9073.8777    4498.0344   -3224.8138    576642.72    6239.4559 
  201600    335.01911   0.81276012    4408.3792    6565.9813   -2157.6021    1067.3555    4089.8892    573.20424            0   -9154.0665    4491.1374    -3225.122    576642.72    4416.6803 
  201700    326.56109   0.81276012    4280.5895    6400.2139   -2119.6244    1043.0664    4134.6946    582.19146            0   -9135.8603    4484.6384    -3228.355    576642.72    4051.1502 
  201800    326.45212   0.81276012    4279.1458    6398.0784   -2118.9326    1110.4886    4038.4889    592.00251            0   -9127.2845    4490.7353   -3223.3634    576642.72     4476.122 
  201900    327.04994   0.81276012    4370.4797    6409.7948   -2039.3151    1112.4081    4150.8734    575.81171            0   -9152.5578    4497.0865    -3222.937    576642.72    4251.3338 
  202000    331.30245   0.81276012    4539.2177    6493.1391   -1953.9214    1107.2857    4197.9399    584.29211            0   -9121.2923    4500.3668   -3222.5137    576642.72    6128.3368 
  202100    332.27067   0.81276012    4506.0099    6512.1151   -2006.1052    1092.5118    4219.5405    579.70273            0   -9175.7357    4505.5674   -3227.6919    576642.72    4560.9589 
  202200    326.17861   0.81276012    4390.8834    6392.7179   -2001.8345    1111.9398    4124.9522    608.72989            0   -9122.5769    4502.7996    -3227.679    576642.72    4988.8171 
  202300    326.08779   0.81276012    4353.7608    6390.9379   -2037.1771    1095.0447    4115.2782    600.65339            0    -9121.847    4497.5079   -3223.8144    576642.72    5516.1288 
  202400    327.52469   0.81276012    4332.7828    6419.0993   -2086.3165    1134.1841    4110.0524    561.00816            0   -9166.0267     4498.472   -3224.0065    576642.72    4313.7795 
  202500    323.28596   0.81276012    4221.8925    6336.0253   -2114.1328    1060.2424    4116.5116    563.90179            0   -9153.6806    4518.8798   -3219.9879    576642.72    5525.2899 
  202600     320.8422   0.81276012    4158.8866    6288.1305   -2129.2439    1049.0418    4132.1245    562.62053            0   -9150.5764    4500.5164   -3222.9707    576642.72    4810.5163 
  202700    324.82858   0.81276012    4329.5497    6366.2588   -2036.7091    1047.2909    4199.0817    569.02272            0   -9122.7221    4489.6375   -3219.0197    576642.72    5517.8046 
  202800    329.52664   0.81276012    4392.6449    6458.3353   -2065.6903    1102.3702    4083.8514    574.46662            0   -9115.7242    4508.2033   -3218.8577    576642.72    5115.6945 
  202900    330.24506   0.81276012    4370.6077    6472.4156   -2101.8078    1112.4686    4056.3085    578.99464            0   -9132.7059    4502.9106   -3219.7843    576642.72    4470.4273 
  203000     326.8573   0.81276012    4321.5255    6406.0194   -2084.4939    1110.3549    4087.1604    592.01669            0   -9142.4154    4487.0744   -3218.6849    576642.72    3636.6988 
  203100    320.53942   0.81276012    4162.3087    6282.1964   -2119.8877    1088.3257     4043.785    572.18354            0   -9088.9369    4488.3866   -3223.6316    576642.72    4865.6676 
  203200    325.25035   0.81276012    4127.2036    6374.5251   -2247.3214    1074.0965    4008.4591    580.22847            0   -9165.0533    4479.6101   -3224.6623    576642.72    4254.9169 
  203300    326.87682   0.81276012    4317.8686     6406.402   -2088.5333    1134.7023     4040.244    597.19677            0     -9130.13    4497.0398   -3227.5863    576642.72    4878.8471 
  203400    332.95508   0.81276012    4370.9039    6525.5286   -2154.6247    1080.7687    4061.2694    572.13559            0   -9152.1291    4508.2675   -3224.9368    576642.72    4649.6551 
  203500    330.90438   0.81276012    4366.9643    6485.3375   -2118.3731    1081.8645    4092.1127    577.25832            0   -9175.3915    4528.8616   -3223.0788    576642.72    4013.6107 
  203600    325.53826   0.81276012    4340.6777    6380.1677     -2039.49    1122.6507    4108.5974    576.70905            0   -9168.7389    4544.7806   -3223.4889    576642.72    4191.9811 
  203700    326.56859   0.81276012    4307.6013     6400.361   -2092.7597    1129.0138    4077.9313    558.70033            0   -9188.1078     4549.692   -3219.9894    576642.72    3749.9189 
  203800    324.49841   0.81276012    4320.8012    6359.7879   -2038.9867    1136.9739    4090.9985     575.3202            0   -9145.7874    4527.8511   -3224.3431    576642.72    3943.3967 
  203900    329.24591   0.81276012    4456.4327    6452.8333   -1996.4006    1108.5349     4105.992    603.66783            0   -9097.6534    4506.9734   -3223.9153    576642.72    5256.5322 
  204000    330.60821   0.81276012    4520.2638    6479.5329   -1959.2691     1091.176    4201.0971     589.6538            0   -9119.5648     4504.362   -3225.9933    576642.72    4689.2518 
  204100     332.2096   0.81276012    4433.5458    6510.9181   -2077.3723    1105.4126    4103.2271    570.47813            0    -9162.301    4526.9495   -3221.1387    576642.72    5251.9461 
  204200    320.82004   0.81276012    4282.4223    6287.6962   -2005.2739     1108.066    4138.6545    577.79029            0   -9149.5598    4537.5125   -3217.7373    576642.72    3794.8529 
  204300    326.33725   0.81276012    4279.3291     6395.827   -2116.4978    1151.3198    4038.0595    566.26861            0   -9203.8711    4550.5116   -3218.7863    576642.72    3610.8487 
  204400    327.41872   0.81276012    4321.0019    6417.0226   -2096.0207    1103.2561     4049.358    559.81953            0   -9105.1613    4517.9578   -3221.2508    576642.72    4809.5572 
  204500    324.78147   0.81276012    4393.7408    6365.3355   -1971.5948     1139.606    4185.8175    585.76368            0   -9176.5938     4519.277   -3225.4651    576642.72    2461.5006 
  204600    334.68623   0.81276012    4508.5287    6559.4573   -2050.9285    1112.9491    4069.0713    587.13188            0   -9099.9955    4504.1111   -3224.1963    576642.72    4436.5739 
  204700    333.61715   0.81276012    4564.3932    6538.5045   -1974.1113    1102.8697    4158.3371    577.14015            0   -9110.9635    4520.0738   -3221.5685    576642.72    4580.2986 
  204800    326.75499   0.81276012    4361.6266    6404.0142   -2042.3875    1105.8853    4114.7082    580.38104            0   -9144.0948    4526.1007   -3225.3679    576642.72    5104.5112 
  204900    327.16098   0.81276012    4272.3518    6411.9712   -2139.6194    1063.6602    4120.7247    567.85858            0   -9187.4899    4523.9144   -3228.2874    576642.72    4714.1942 
  205000     322.1619   0.81276012    4293.5626     6313.995   -2020.4323    1092.0475    4160.9233    588.70822            0   -9139.5091     4509.844   -3232.4463    576642.72    4157.2506 
  205100    327.49374   0.81276012    4407.3183    6418.4929   -2011.1745    1132.5368    4114.1686    572.64961            0   -9118.3222    4519.6312   -3231.8386    576642.72    3725.2863 
  205200    335.78604   0.81276012    4494.5641    6581.0123   -2086.4482    1103.3289     4089.404    551.62902            0   -9142.1314    4542.6702   -3231.3488    576642.72    4429.3976 
  205300    325.28517   0.81276012    4410.4017    6375.2074   -1964.8057    1127.3472     4135.257    582.56728            0   -9122.1379    4540.5855   -3228.4248    576642.72    4322.6452 
  205400    322.31269   0.81276012    4208.2541    6316.9503   -2108.6963    1090.0082    4032.9549    557.64296            0   -9096.4702    4537.5755   -3230.4076    576642.72    4165.1513 
  205500    322.83589   0.81276012    4229.2347    6327.2044   -2097.9697    1076.2925    4109.1862    595.89921            0   -9174.7001    4523.7631   -3228.4105    576642.72    4462.9209 
  205600    329.26763   0.81276012    4328.9124    6453.2591   -2124.3466    1051.6603    4047.6662    607.33347            0   -9117.2149    4513.4419   -3227.2336    576642.72    4720.0127 
  205700    330.01997   0.81276012    4398.9929     6468.004   -2069.0111     1132.268    4117.8658    578.48238            0   -9197.0233    4524.0397   -3224.6438    576642.72    3379.3003 
  205800    329.80801   0.81276012    4428.8916    6463.8498   -2034.9582    1131.4522    4012.6093    617.75414            0   -9111.2481    4536.6871   -3222.2128    576642.72    3317.0683 
  205900    329.26295   0.81276012    4383.8691    6453.1674   -2069.2982    1098.3052    4066.9577    572.29501            0   -9128.4277    4545.4495    -3223.878    576642.72    4322.4714 
  206000    319.51421   0.81276012    4222.9172    6262.1034   -2039.1863    1106.5027    4123.1177    602.17459            0    -9180.564    4535.6753   -3226.0926    576642.72    2803.2227 
  206100    322.50398   0.81276012     4199.598    6320.6994   -2121.1014    1048.4715    4132.6552    573.56319            0   -9188.6249     4539.511   -3226.6774    576642.72    4623.1156 
  206200    326.77768   0.81276012    4341.7467    6404.4589   -2062.7122    1103.9989    4122.0599    591.31538            0   -9181.7463    4531.6472   -3229.9873    576642.72    4195.8326 
  206300     330.6375   0.81276012    4426.3099    6480.1069   -2053.7969    1109.7493    4123.7436    602.62279            0   -9195.8816    4535.9367   -3229.9677    576642.72    4312.3243 
  206400    329.10868   0.81276012    4446.7069    6450.1438    -2003.437    1120.8761    4116.2975    589.41898            0   -9165.6634    4559.0417   -3223.4078    576642.72    4364.1583 
  206500    326.63989   0.81276012    4397.0342    6401.7584   -2004.7242    1114.8443    4178.5712    566.38826            0   -9191.4435    4551.2139   -3224.2984    576642.72    4113.6076 
  206600    322.59807   0.81276012    4205.8226    6322.5435   -2116.7209    1074.5287      4077.31    585.25666            0   -9173.7641    4542.6337   -3222.6859    576642.72    4303.9512 
  206700      319.746   0.81276012     4190.686    6266.6462   -2075.9602    1103.4685    4082.6721    557.65189            0   -9146.4069    4545.0495   -3218.3952    576642.72    3720.2297 
  206800    321.94228   0.81276012    4292.1612    6309.6907   -2017.5295    1160.5278    4045.5906    584.52451            0   -9136.2781    4548.9972   -3220.8915    576642.72    3425.2523 
  206900    325.13847   0.81276012    4366.9566    6372.3323   -2005.3757    1134.1797    4076.1253     592.4237            0   -9143.3572    4552.5833   -3217.3305    576642.72    4826.7788 
  207000    324.49582   0.81276012    4424.6085    6359.7372   -1935.1287    1087.2824     4158.158    614.07595            0   -9123.3262    4546.3473   -3217.6662    576642.72    4109.8066 
  207100    336.28797   0.81276012     4523.555    6590.8495   -2067.2945    1087.2062    4120.8502    594.67195            0   -9211.8127    4558.0279   -3216.2381    576642.72    4146.6892 
  207200    324.84419   0.81276012    4516.0039    6366.5648   -1850.5609    1093.5252    4230.8715    615.66556            0   -9129.4337    4561.3866   -3222.5761    576642.72    6417.9507 
  207300    320.61372   0.81276012    4366.2947    6283.6526    -1917.358    1099.2218    4152.4958    598.47187            0   -9123.9289    4575.0032   -3218.6218    576642.72    5082.0007 
  207400    322.11325   0.81276012     4311.327    6313.0415   -2001.7144    1096.6601    4152.7456    606.85161            0   -9204.6278    4563.5786   -3216.9225    576642.72    4146.3788 
  207500    327.76517   0.81276012    4405.4589    6423.8126   -2018.3536    1090.9248    4062.3396    583.97731            0   -9118.7662     4583.973   -3220.8022    576642.72    5418.5579 
  207600     326.6542   0.81276012    4526.6069    6402.0388   -1875.4319     1065.475    4196.9782    599.42725            0   -9086.0947    4570.1704   -3221.3882    576642.72    4629.7709 
  207700    324.47066   0.81276012    4521.0491    6359.2441    -1838.195     1145.586    4175.8436    604.45092            0   -9119.7632    4578.8316   -3223.1439    576642.72    4452.3275 
  207800    326.20227   0.81276012    4451.5866    6393.1816    -1941.595    1130.0789    4096.6983    598.63872            0   -9105.8623    4566.3089   -3227.4575    576642.72    4843.2773 
  207900    325.81709   0.81276012    4388.3211    6385.6326   -1997.3114      1079.64     4116.009    600.71707            0    -9114.473    4550.3539   -3229.5583    576642.72     3833.045 
  208000    327.30628   0.81276012    4320.1092    6414.8189   -2094.7097    1090.0442    4018.2335    602.32549            0   -9149.2987    4572.2534   -3228.2676    576642.72    3440.6626 
  208100    317.28992   0.81276012    4176.8761      6218.51   -2041.6339      1057.95    4119.4796    600.21858            0   -9160.9713    4564.9832   -3223.2939    576642.72    4032.0318 
  208200    323.29294   0.81276012    4284.2435    6336.1622   -2051.9187    1103.3205     4037.346    575.64339            0   -9140.2807     4594.365   -3222.3128    576642.72    4456.6552 
  208300    326.49788   0.81276012    4434.1168    6398.9752   -1964.8584    1132.4561    4038.3755    597.51891            0   -9092.0634    4581.6055   -3222.7511    576642.72      3375.34 
  208400    330.29855   0.81276012    4501.7803    6473.4639   -1971.6836    1152.3517    4086.7367    573.96805            0   -9137.0471    4577.0143   -3224.7071    576642.72     3586.864 
  208500    330.01349   0.81276012    4479.6081    6467.8771   -1988.2689    1098.1831     4131.152    588.40533            0   -9150.3549    4571.1355     -3226.79    576642.72    4076.2389 
  208600     323.8234   0.81276012    4377.2879    6346.5585   -1969.2706    1124.9773    4132.7602    617.49763            0   -9156.2694    4543.2015   -3231.4379    576642.72    3425.9359 
  208700    324.66588   0.81276012    4274.5993    6363.0701   -2088.4708    1075.6471    4059.4045    603.51017            0   -9141.9507    4549.5853   -3234.6673    576642.72    4391.3921 
  208800    325.04752   0.81276012    4336.9745    6370.5499   -2033.5754    1114.3377    4109.1947    572.86011            0   -9147.4147    4548.4647   -3231.0179    576642.72    3974.3869 
  208900    325.54391   0.81276012    4512.1159    6380.2786   -1868.1627    1125.6008    4128.1112    624.13304            0   -9080.7306      4567.15   -3232.4271    576642.72    5363.0637 
  209000    330.18164   0.81276012    4554.3184    6471.1726   -1916.8542    1148.6545    4144.1502    606.93717            0   -9153.8288    4569.5937    -3232.361    576642.72    3249.6308 
  209100    325.44969   0.81276012    4475.8868     6378.432   -1902.5452    1164.3807    4126.1527    577.49925            0     -9130.37    4590.3032   -3230.5111    576642.72    3551.5647 
  209200    328.21145   0.81276012     4345.243    6432.5591   -2087.3161     1096.717    4027.7713    579.51111            0   -9133.8192    4575.9855   -3233.4818    576642.72    4231.3156 
  209300    322.94762   0.81276012    4275.3061    6329.3943   -2054.0881    1100.3582    4054.9639    591.03168            0   -9112.6849    4545.5272   -3233.2842    576642.72    3762.7078 
  209400    327.41194   0.81276012    4487.4027    6416.8897    -1929.487    1052.4092    4197.1445    602.07564            0   -9122.9121    4569.1621   -3227.3664    576642.72    4205.2391 
  209500    331.35427   0.81276012    4609.4076    6494.1547   -1884.7471    1104.0002    4175.7685    592.39847            0   -9106.7712    4578.2115   -3228.3546    576642.72     4181.333 
  209600    327.19901   0.81276012    4515.5262    6412.7164   -1897.1903    1164.2886     4126.199    592.11173            0    -9132.456    4580.4909   -3227.8245    576642.72    4626.4948 
  209700    327.18771   0.81276012    4394.4301    6412.4951    -2018.065    1087.8552    4127.7874    578.16343            0   -9172.4338    4586.3972   -3225.8345    576642.72    4620.7493 
  209800    323.34451   0.81276012    4356.6565    6337.1729   -1980.5163    1077.8943    4162.6444    582.80274            0   -9153.5892     4577.612   -3227.8807    576642.72    3218.5873 
  209900    326.36993   0.81276012    4416.9396    6396.4674   -1979.5278    1161.2542    4060.8306    576.37641            0   -9125.3529    4581.2916   -3233.9277    576642.72    3125.3715 
  210000    328.69688   0.81276012    4582.7615     6442.073   -1859.3115    1138.8477     4187.623    591.02417            0   -9122.5407    4581.6747   -3235.9403    576642.72    3547.5103 
  210100    331.76362   0.81276012    4615.3175    6502.1774   -1886.8599     1132.332     4135.447    580.01713            0   -9087.0848    4583.3287   -3230.8999    576642.72    3092.2583 
  210200    326.99402   0.81276012    4538.5285    6408.6989   -1870.1704     1112.359    4172.2249     590.6907            0    -9093.802    4577.2499   -3228.8929    576642.72    3111.3763 
  210300    325.32722   0.81276012    4458.3572    6376.0317   -1917.6745    1118.8612    4100.1186     611.3759            0   -9096.3414    4576.7315   -3228.4203    576642.72    5063.3281 
  210400    328.11181   0.81276012    4440.1858    6430.6063   -1990.4205    1068.7757    4131.0549    576.75597            0   -9115.3425    4578.2137   -3229.8783    576642.72    4600.4929 
  210500    329.97304   0.81276012    4387.0555    6467.0842   -2080.0287    1069.5725    4073.1446    588.77825            0   -9161.8977    4580.0559   -3229.6822    576642.72     3891.404 
  210600     326.6179   0.81276012    4257.0588    6401.3275   -2144.2687     1028.939    4044.2819    570.61193            0   -9134.7294    4581.8145   -3235.1868    576642.72    4932.8047 
  210700    320.69508   0.81276012    4130.0915    6285.2471   -2155.1557    1029.0743    4047.9582    556.97046            0   -9126.6861     4570.175   -3232.6475    576642.72    3780.1131 
  210800    319.76183   0.81276012    4142.8018    6266.9564   -2124.1547    1068.6319     4056.791    596.15271            0   -9177.3943     4561.527   -3229.8629    576642.72    3338.9136 
  210900    326.65271   0.81276012    4354.9682    6402.0096   -2047.0414    1096.2985    4077.8704     584.9794            0   -9150.4977    4572.0592   -3227.7512    576642.72    4093.3886 
  211000    326.37528   0.81276012    4442.8402    6396.5723   -1953.7321    1075.9868    4167.7858    598.87909            0   -9127.6801    4556.7123   -3225.4161    576642.72    3674.7041 
  211100    332.16853   0.81276012    4499.9305    6510.1133   -2010.1828    1109.3872    4076.0963    611.46553            0   -9140.5271     4558.064   -3224.6687    576642.72    3857.2341 
  211200    332.15581   0.81276012    4436.6869    6509.8639    -2073.177    1067.7659    4080.5493    577.38149            0   -9145.5693    4574.3436    -3227.648    576642.72    4556.3969 
  211300    321.31448   0.81276012    4283.9962    6297.3865   -2013.3904    1096.0439    4178.2728    585.92345            0   -9211.6793    4562.9795   -3224.9308    576642.72    3853.7058 
  211400    321.18222   0.81276012    4287.1463    6294.7945   -2007.6482    1086.9906    4165.6819    606.39142            0    -9207.353    4566.4066   -3225.7658    576642.72    4322.6321 
  211500    322.78936   0.81276012    4383.0206    6326.2926    -1943.272    1128.2439    4127.1011    602.65819            0   -9171.8944    4597.9628   -3227.3437    576642.72    3672.5211 
  211600    330.00406   0.81276012     4421.604    6467.6922   -2046.0883    1073.4513    4113.3359    588.40887            0   -9178.9667     4584.298   -3226.6156    576642.72    4280.5224 
  211700    328.09639   0.81276012    4435.7107    6430.3041   -1994.5933    1146.3804    4123.7725    566.45031            0   -9181.5342    4576.2855   -3225.9478    576642.72    3526.4011 
  211800    324.52503   0.81276012    4411.0625    6360.3096   -1949.2472    1106.1445     4199.261    599.93117            0    -9181.843     4552.974   -3225.7148    576642.72    4062.5465 
  211900    323.27111   0.81276012    4303.2518    6335.7342   -2032.4825    1079.1037    4154.8458    571.38329            0   -9179.6226    4570.0081   -3228.2008    576642.72      4390.56 
  212000    323.38166   0.81276012    4182.4386    6337.9009   -2155.4622    1077.2019    4013.0348    573.37794            0   -9148.4748    4560.3196   -3230.9217    576642.72    3359.1714 
  212100    323.98652   0.81276012    4243.9168    6349.7555   -2105.8387    1076.9023    4071.7666     565.2367            0   -9148.3189    4558.0188   -3229.4442    576642.72    4165.0341 
  212200    324.27641   0.81276012    4403.3297     6355.437   -1952.1073     1101.372      4190.12    569.59588            0   -9152.2288     4566.913   -3227.8794    576642.72    4342.5303 
  212300    328.82965   0.81276012    4421.9188    6444.6751   -2022.7563     1124.873    4065.6594    561.72855            0   -9124.7657     4576.035   -3226.2865    576642.72    4171.2871 
  212400    329.10728   0.81276012    4381.7233    6450.1164   -2068.3931    1125.8068    4033.9849    585.55627            0   -9157.6122    4568.5988   -3224.7277    576642.72     3864.635 
  212500    327.32069   0.81276012    4316.1802    6415.1013   -2098.9211    1121.3699    4084.6948    553.19131            0     -9180.98    4546.8584   -3224.0554    576642.72    2875.7692 
  212600    319.45811   0.81276012    4200.6261    6261.0039   -2060.3779    1077.5191    4044.2899    577.17607            0     -9103.26    4564.7335   -3220.8365    576642.72    4384.9294 
  212700    321.89492   0.81276012     4215.529    6308.7626   -2093.2336    1104.0394     4048.948    565.04201            0   -9164.8774    4574.2132   -3220.5987    576642.72    4096.0061 
  212800    326.90759   0.81276012    4418.4111    6407.0049   -1988.5938    1077.9295     4179.098    565.91378            0    -9148.674    4556.1771   -3219.0381    576642.72    4217.4344 
  212900    332.62686   0.81276012      4450.72     6519.096    -2068.376    1134.3382    4006.9369    602.30693            0   -9147.8856    4554.1139   -3218.1864    576642.72    4377.4975 
  213000    326.50546   0.81276012     4376.015    6399.1236   -2023.1087    1115.0485    4083.1665    583.96445            0   -9135.1405    4552.2091   -3222.3567    576642.72    3873.0887 
  213100    323.41639   0.81276012    4265.6695    6338.5816   -2072.9121    1102.1772    4097.3583    546.80132            0   -9139.3749    4545.6542   -3225.5283    576642.72    2747.6733 
  213200    320.15508   0.81276012    4235.3323    6274.6637   -2039.3314    1072.8108    4007.2247    572.96693            0   -9013.0784    4546.5169   -3225.7723    576642.72    4706.8547 
  213300    330.10084   0.81276012    4468.4759    6469.5889    -2001.113     1108.817     4049.295    593.25682            0   -9099.2757    4567.8489   -3221.0551    576642.72    3857.1346 
  213400    329.05189   0.81276012    4545.8448    6449.0308    -1903.186    1099.9296    4167.7618    594.19676            0   -9100.8164    4559.8911   -3224.1488    576642.72    2923.8736 
  213500    328.67754   0.81276012     4493.362    6441.6939   -1948.3319    1150.6656    4124.4332    596.86272            0   -9148.5746    4555.9002   -3227.6191    576642.72    2718.4141 
  213600    328.61036   0.81276012    4374.0446    6440.3773   -2066.3327     1074.021    4004.2028    584.58322            0   -9073.2276    4568.6638   -3224.5758    576642.72    4336.8054 
  213700    322.28242   0.81276012    4286.6944     6316.357   -2029.6626    1100.9771    4068.9059    598.02062            0   -9134.0392    4559.7172   -3223.2443    576642.72    3448.8448 
  213800    323.58303   0.81276012    4331.5848    6341.8475   -2010.2627     1082.801    4119.9481    583.60881            0   -9151.8761    4580.5928   -3225.3372    576642.72    4676.7839 
  213900    331.70471   0.81276012    4533.8894    6501.0229   -1967.1335    1072.9127    4174.9894     587.7011            0   -9150.3297    4572.3778   -3224.7848    576642.72    5234.4843 
  214000    331.04781   0.81276012    4556.5305    6488.1485    -1931.618    1035.4953     4158.481    603.62109            0   -9089.4723    4583.0047   -3222.7478    576642.72    5366.4232 
  214100     331.7281   0.81276012    4483.3123    6501.4814   -2018.1691    1126.5615    4107.3939    591.93354            0   -9195.3554    4573.3912   -3222.0938    576642.72    4362.4427 
  214200    326.27993   0.81276012    4360.9276    6394.7036    -2033.776    1128.1959    4081.1755    557.14768            0   -9165.9908    4587.2624   -3221.5667    576642.72    4177.6631 
  214300    324.89638   0.81276012     4299.112    6367.5875   -2068.4756    1145.4905    4032.4852      579.111            0   -9162.7942    4564.7443   -3227.5122    576642.72     3538.999 
  214400    325.65136   0.81276012    4316.6962    6382.3843   -2065.6881     1111.364    4090.6016    586.18518            0   -9173.7087    4546.0901   -3226.2203    576642.72    3105.4186 
  214500    325.41983   0.81276012    4401.4354    6377.8467   -1976.4114    1122.8219    4101.2256    610.06355            0    -9149.911    4563.3143   -3223.9257    576642.72    3154.8496 
  214600    333.55785   0.81276012    4638.1509    6537.3423   -1899.1913    1139.5672    4113.1587    609.57626            0   -9112.7327    4576.8653    -3225.626    576642.72    4264.5712 
  214700    332.39072   0.81276012    4579.1903     6514.468   -1935.2777    1090.7978    4155.6699    618.00692            0   -9148.0833    4572.9049   -3224.5739    576642.72    4225.2302 
  214800    325.88493   0.81276012     4414.829    6386.9621   -1972.1331    1067.9127    4175.7911    588.70824            0   -9141.6904    4565.5604   -3228.4151    576642.72    3945.6997 
  214900     327.5537   0.81276012    4335.8317    6419.6679   -2083.8362    1036.3173    4074.8853    539.53089            0   -9082.9285    4576.2531   -3227.8943    576642.72    4492.2926 
  215000    324.02525   0.81276012    4353.1901    6350.5145   -1997.3244    1120.5914    4114.9347    571.58252            0   -9155.6789    4584.2376   -3232.9918    576642.72    4155.4839 
  215100    323.78589   0.81276012    4497.6998    6345.8234   -1848.1236    1149.6756    4206.6122    572.33869            0   -9122.6761    4577.8233   -3231.8973    576642.72    3861.9536 
  215200    327.59114   0.81276012    4575.4972    6420.4017   -1844.9045    1155.9709    4182.3692    602.04775            0   -9097.6634    4542.7833   -3230.4122    576642.72    3352.3144 
  215300    329.12015   0.81276012    4443.9411    6450.3687   -2006.4275    1111.1603    4114.2942      581.576            0   -9147.9693    4561.0443    -3226.533    576642.72    4414.2727 
  215400    324.95223   0.81276012    4347.1543    6368.6823    -2021.528    1074.9787    4144.3396    602.98932            0   -9167.8565    4551.7081   -3227.6873    576642.72    4072.2167 
  215500    326.78324   0.81276012     4314.805    6404.5679   -2089.7629    1138.7995    4055.2902     568.6691            0   -9159.2824    4538.1683   -3231.4076    576642.72    3640.9459 
  215600    325.98661   0.81276012    4322.1005    6388.9549   -2066.8544    1079.8882    4133.8331    573.62778            0   -9195.5786     4569.354   -3227.9789    576642.72    3551.1596 
  215700    327.11629   0.81276012    4399.0027    6411.0953   -2012.0926    1117.5292    4078.7145    592.25615            0   -9148.9136    4576.0946   -3227.7735    576642.72    3858.8685 
  215800    330.23832   0.81276012    4507.7728    6472.2835   -1964.5107    1108.1853    4105.0122    581.51843            0   -9111.1296    4575.8716   -3223.9687    576642.72    3747.4431 
  215900    331.14527   0.81276012    4548.4384    6490.0586   -1941.6202    1107.8555    4164.2409    570.59581            0   -9139.1492    4579.0281   -3224.1915    576642.72    4026.2504 
  216000    333.47785   0.81276012    4378.4141    6535.7743   -2157.3602     1049.107    4057.0348    580.63649            0   -9191.1245    4577.2356   -3230.2496    576642.72    4014.1138 
  216100    326.41562   0.81276012    4264.0024    6397.3631   -2133.3606    1025.3344    4102.9086    560.61805            0   -9164.3061    4571.1795   -3229.0951    576642.72    3859.8294 
  216200    326.57269   0.81276012    4302.4462    6400.4414   -2097.9952    1101.7918    3988.2267    628.17215            0   -9155.5567    4565.3183   -3225.9475    576642.72    3716.8075 
  216300    331.29216   0.81276012    4405.9236    6492.9374   -2087.0137     1082.811    4008.1302    590.29212            0   -9126.4355    4582.1518   -3223.9634    576642.72    4341.9003 
  216400    330.69599   0.81276012    4499.6275    6481.2533   -1981.6257    1106.1365    4131.7489    575.07654            0   -9155.7793    4588.4443   -3227.2526    576642.72    4495.8676 
  216500    332.62555   0.81276012    4597.3071    6519.0703   -1921.7632    1105.4029    4163.1309     594.4079            0   -9137.9355    4582.7027   -3229.4721    576642.72    4525.2697 
  216600    334.72329   0.81276012    4676.8622    6560.1835   -1883.3213    1111.4958    4181.9019    605.02819            0   -9126.7531    4570.3116   -3225.3057    576642.72    3971.5348 
  216700    326.70383   0.81276012    4485.9452    6403.0116   -1917.0663     1076.151    4163.2099     597.5369            0   -9102.9081    4571.8915   -3222.9475    576642.72    4031.5713 
  216800    323.48705   0.81276012    4373.2131    6339.9665   -1966.7535    1053.3408      4182.15    573.13633            0   -9116.2179    4565.0683   -3224.2309    576642.72    3507.8942 
  216900    325.89609   0.81276012    4322.7491    6387.1809   -2064.4317    1140.3553    4002.2066    569.16519            0   -9118.3856    4568.4642   -3226.2374    576642.72    3175.0823 
  217000    331.15431   0.81276012    4336.3229    6490.2357   -2153.9128    1084.8127    3988.7438    563.41509            0   -9131.4632    4570.6643   -3230.0856    576642.72    4261.2828 
  217100    331.30165   0.81276012    4409.0762    6493.1234   -2084.0472    1100.8188    4038.3136    571.71201            0   -9103.3447    4533.5108   -3225.0578    576642.72    4047.2052 
  217200    333.19662   0.81276012    4492.2352    6530.2625   -2038.0274    1098.8673    4082.1969    577.26742            0    -9109.064    4541.4948   -3228.7898    576642.72     4779.245 
  217300        331.3   0.81276012    4488.8472    6493.0911   -2004.2439    1100.4554    4108.0163    580.35363            0   -9131.6389    4567.9614   -3229.3917    576642.72    4246.2704 
  217400    330.26939   0.81276012    4327.7052    6472.8924   -2145.1872    1049.6507    4054.6439    559.12601            0   -9128.6558    4549.1323   -3229.0843    576642.72    4857.6071 
  217500    322.18892   0.81276012     4253.772    6314.5246   -2060.7526    1089.6647    4105.8116    582.89152            0   -9180.2788    4567.4755   -3226.3171    576642.72    3863.4209 
  217600    320.28668   0.81276012    4329.3304    6277.2429   -1947.9125    1065.5854    4130.7741    574.23733            0    -9070.692    4574.0325   -3221.8499    576642.72    4223.5414 
  217700    326.83793   0.81276012    4410.0107    6405.6397    -1995.629    1112.8713    4101.3782    570.40407            0   -9144.4154     4584.751   -3220.6182    576642.72    3081.5291 
  217800     329.6205   0.81276012     4412.144    6460.1749   -2048.0309    1053.5443    4056.6971    593.64603            0   -9090.7735    4562.2508   -3223.3956    576642.72    4090.1054 
  217900    327.98663   0.81276012    4435.2073    6428.1529   -1992.9456    1126.4234    4015.8246    597.73197            0   -9077.0548    4566.8441   -3222.7148    576642.72    3886.2614 
  218000    326.48303   0.81276012    4480.3868    6398.6841   -1918.2972    1116.9517    4154.3655    601.69628            0   -9142.7051    4574.4533   -3223.0589    576642.72    3887.5712 
  218100    331.68353   0.81276012    4639.8146    6500.6079   -1860.7932     1135.073    4125.2077    608.25242            0   -9079.6066    4575.4173   -3225.1372    576642.72    3163.5464 
  218200     333.4009   0.81276012    4667.0441    6534.2663   -1867.2222     1162.192    4109.7466    583.54596            0   -9060.2658    4566.8457   -3229.2866    576642.72    3638.0833 
  218300    333.98679   0.81276012    4462.7753     6545.749   -2082.9736    1080.0086    4017.8863    590.15982            0   -9107.0886    4564.7816   -3228.7214    576642.72    4176.3826 
  218400     328.9041   0.81276012    4397.6913    6446.1342   -2048.4429    1086.8106     4126.618    593.75455            0   -9197.0292    4574.0355   -3232.6324    576642.72    4433.9688 
  218500    325.65439   0.81276012    4356.9094    6382.4438   -2025.5344    1047.1279    4099.9897    594.29927            0   -9119.2704    4584.5572   -3232.2381    576642.72    4965.4175 
  218600    324.46021   0.81276012     4361.653    6359.0393   -1997.3863    1081.5584    4138.6422    583.21023            0   -9147.5739    4577.8696   -3231.0928    576642.72    4816.6813 
  218700    330.53174   0.81276012    4439.1137    6478.0342   -2038.9205    1045.8298    4046.6384    585.48968            0   -9051.3869    4564.4653   -3229.9567    576642.72    4610.5735 
  218800    330.80828   0.81276012    4571.3819    6483.4539    -1912.072    1126.5376    4068.7416    610.95566            0   -9051.1584    4561.9078   -3229.0562    576642.72    4449.3242 
  218900    332.14067   0.81276012    4593.1151    6509.5672   -1916.4522    1097.2463    4144.9953    587.25943            0   -9085.5045    4568.2773    -3228.726    576642.72    4351.9093 
  219000    325.17027   0.81276012    4415.6331    6372.9557   -1957.3225    1119.5433    4075.3117    587.15868            0   -9063.8766    4553.7583   -3229.2179    576642.72    3972.3512 
  219100     323.6598   0.81276012    4331.8471    6343.3521   -2011.5049    1098.8162     4087.072    590.38443            0   -9127.0219    4561.8186   -3222.5743    576642.72    4002.9074 
  219200    326.62424   0.81276012    4382.3247    6401.4517    -2019.127    1106.7142    4090.8919    592.41379            0    -9162.756    4572.3694   -3218.7604    576642.72    2733.5174 
  219300    328.06688   0.81276012    4449.4736    6429.7258   -1980.2521    1069.0029    4127.1311    571.98863            0   -9097.9751    4570.5663   -3220.9659    576642.72    4790.6799 
  219400    328.98367   0.81276012    4524.0139    6447.6937   -1923.6798    1136.0463     4145.762    576.23961            0   -9137.1403    4579.2676   -3223.8551    576642.72    3788.9352 
  219500     330.1908   0.81276012    4580.3587     6471.352   -1890.9934    1123.9151    4159.4018    579.57197            0   -9118.2475    4591.4713    -3227.106    576642.72    3585.0966 
  219600    330.50487   0.81276012    4554.2566    6477.5075   -1923.2509    1131.1733     4067.898    577.00548            0   -9063.2444    4589.2167   -3225.3001    576642.72    4858.7826 
  219700    326.26724   0.81276012    4410.4599     6394.455    -1983.995    1128.4293    4076.2686    615.70398            0   -9172.5071    4591.2709   -3223.1607    576642.72    3733.6585 
  219800    320.41685   0.81276012    4306.3479    6279.7942   -1973.4463     1108.937    4078.0835    593.63005            0   -9117.2306    4591.3889   -3228.2551    576642.72    3914.4315 
  219900    325.93103   0.81276012    4374.8994    6387.8656   -2012.9662    1097.2335    4133.9939    572.00848            0   -9170.6674    4581.6444    -3227.179    576642.72     2701.513 
  220000    328.36672   0.81276012    4468.0337    6435.6023   -1967.5686    1097.2126    4048.9697    583.30032            0   -9067.6428    4596.1025    -3225.511    576642.72    4133.8355 
  220100    328.52474   0.81276012    4498.0319    6438.6993   -1940.6675     1096.655    4091.6651    579.75672            0   -9074.6643     4592.822    -3226.902    576642.72    3961.6222 
  220200    327.31434   0.81276012    4430.5184    6414.9767   -1984.4583    1092.2416    4058.6224    593.41924            0   -9087.1629    4587.3144   -3228.8932    576642.72    4473.2886 
  220300    323.68199   0.81276012    4250.5942     6343.787   -2093.1929    1079.3083       4004.4    599.31803            0   -9139.6562    4591.9851    -3228.548    576642.72    3992.3282 
  220400    326.63837   0.81276012    4285.4274    6401.7285   -2116.3012    1118.1916    3993.8034    554.50847            0   -9146.4136    4590.0945   -3226.4856    576642.72    3858.0481 
  220500    327.51673   0.81276012    4443.7344    6418.9433   -1975.2089    1082.2912     4097.545    581.27476            0   -9096.0335    4587.8475   -3228.1338    576642.72    4266.0978 
  220600    328.01791   0.81276012    4507.9502     6428.766   -1920.8158    1099.9362    4118.5962    577.11748            0   -9084.4803    4595.7694   -3227.7547    576642.72    4122.0446 
  220700    328.70858   0.81276012    4517.1913    6442.3023   -1925.1111    1103.7436    4169.4558    584.74269            0   -9144.5993    4591.1323    -3229.586    576642.72    4945.9169 
  220800    327.33422   0.81276012     4411.759    6415.3665   -2003.6076    1077.2922    4092.0468    586.54952            0   -9126.1173    4590.6643   -3224.0431    576642.72    4466.5339 
  220900     319.9413   0.81276012    4266.4552    6270.4739   -2004.0187    1072.3941    4151.6812    577.93796            0     -9169.87    4589.2882   -3225.4502    576642.72    2734.5597 
  221000    322.96747   0.81276012    4313.7577    6329.7832   -2016.0255    1079.4639     4043.614    584.81693            0   -9092.2022    4594.1661   -3225.8843    576642.72    4316.1268 
  221100     324.6087   0.81276012    4411.2293    6361.9494   -1950.7202    1112.4756    4073.3573    578.48862            0   -9045.6407    4562.9436   -3232.3446    576642.72    3644.1033 
  221200    327.70614   0.81276012    4464.9556    6422.6556   -1957.7001    1096.0288    4094.9491    592.16482            0   -9081.4962    4572.9145    -3232.261    576642.72     3834.177 
  221300    324.78311   0.81276012    4474.3826    6365.3677   -1890.9851    1054.4615    4152.8015    614.42348            0   -9076.6236    4593.4402   -3229.4881    576642.72    4886.9357 
  221400    330.35245   0.81276012    4450.1345    6474.5203   -2024.3858    1082.7631    4121.1466    589.29908            0    -9155.937    4571.5261   -3233.1837    576642.72    4431.4622 
  221500    324.24733   0.81276012    4367.4449    6354.8671   -1987.4221    1137.0241    4042.4003    567.41225            0   -9087.0565    4584.7902   -3231.9925    576642.72    4413.6518 
  221600    320.39644   0.81276012    4251.8585    6279.3941   -2027.5357    1150.0572    4007.9852    587.25996            0   -9150.7479    4611.4335   -3233.5236    576642.72    2117.9935 
  221700    321.95321   0.81276012      4303.45     6309.905    -2006.455    1086.4058    4060.8171    586.14561            0   -9112.3111    4606.2054   -3233.7178    576642.72    4758.2698 
  221800     327.6988   0.81276012    4479.4771    6422.5119   -1943.0348    1154.8626    4058.1137    597.35101            0   -9117.2055     4596.701   -3232.8576    576642.72    3981.9321 
  221900    328.81292   0.81276012    4520.8099    6444.3473   -1923.5374    1148.9992    4096.1046    599.74032            0    -9135.524    4598.4339   -3231.2915    576642.72    2902.6222 
  222000    328.93116   0.81276012    4496.7952    6446.6646   -1949.8694    1126.9877    4045.0116    596.88244            0   -9095.9056    4606.4371   -3229.2827    576642.72    4063.8925 
  222100    326.26954   0.81276012    4406.0186       6394.5   -1988.4813    1143.2321    4059.2685    605.35829            0   -9165.0946    4599.0865   -3230.3322    576642.72    3128.1083 
  222200    322.61812   0.81276012    4260.6055    6322.9364   -2062.3309    1109.1212    3998.7374    602.30757            0   -9138.2996    4596.3474   -3230.5449    576642.72    3269.9562 
  222300    330.48157   0.81276012     4245.051    6477.0507   -2231.9997    1058.8503    3935.7012    565.30249            0    -9166.733    4604.5417   -3229.6624    576642.72    3993.1243 
  222400    329.33706   0.81276012    4460.0333    6454.6198   -1994.5865    1142.2884    4076.3849    594.87569            0   -9155.3969    4576.7575   -3229.4961    576642.72     3696.597 
  222500    333.78777   0.81276012    4504.5963    6541.8484   -2037.2521    1106.6817    4038.9915    598.23466            0   -9156.1128    4603.3199   -3228.3671    576642.72    4798.5048 
  222600    320.89017   0.81276012    4418.3993    6289.0707   -1870.6714    1180.1481    4097.5715    616.76216            0   -9126.3075    4587.3985   -3226.2442    576642.72    3767.8376 
  222700    325.82167   0.81276012    4338.1112    6385.7223   -2047.6111    1099.6246    4069.6162    594.63566            0   -9171.7018    4586.3686   -3226.1543    576642.72    3361.7525 
  222800    324.69165   0.81276012    4309.5625    6363.5751   -2054.0126    1098.1037    4030.1496    580.11142            0   -9115.6501    4584.5164   -3231.2437    576642.72    4588.9727 
  222900    327.37747   0.81276012    4510.5976    6416.2141   -1905.6165    1190.4571    4116.1651    590.82896            0   -9160.6961     4586.965   -3229.3366    576642.72    2709.6701 
  223000    328.96835   0.81276012    4553.5036    6447.3935   -1893.8899    1133.3277    4203.3045     606.1426            0   -9180.7538    4575.7993   -3231.7102    576642.72    3649.4963 
  223100    329.25105   0.81276012    4444.4464    6452.9341   -2008.4877    1129.6909    4058.9571    552.72105            0   -9117.7822    4597.9051   -3229.9797    576642.72    4021.8797 
  223200    327.71146   0.81276012    4362.2893    6422.7598   -2060.4705    1114.9775    4067.8795    554.57329            0   -9175.6231    4603.1462   -3225.4239    576642.72    3751.9931 
  223300    326.83968   0.81276012    4374.2207    6405.6741   -2031.4534    1077.8652    4075.7907     584.1481            0   -9141.5372    4595.5021   -3223.2224    576642.72    4419.3599 
  223400    326.69464   0.81276012    4428.2528    6402.8314   -1974.5786    1073.6409    4138.0134    569.56298            0   -9123.8144    4591.0978   -3223.0793    576642.72    4625.2411 
  223500     321.7297   0.81276012    4456.2108    6305.5244   -1849.3136    1114.6626    4131.4582    577.69952            0   -9028.4088    4577.9338   -3222.6589    576642.72    5160.7383 
  223600    331.68751   0.81276012    4458.3378    6500.6859   -2042.3481    1074.9092    4078.2639    582.43954            0   -9149.1997    4595.5422   -3224.3032    576642.72    3593.8068 
  223700     323.4761   0.81276012    4445.0878    6339.7518    -1894.664    1091.2428    4152.1028    573.89711            0   -9083.4333    4598.2748   -3226.7483    576642.72    4120.3168 
  223800    327.94166   0.81276012    4433.8693    6427.2716   -1993.4023    1073.1109     4115.066    593.42752            0   -9145.0046    4596.1002   -3226.1023    576642.72    2948.0531 
  223900    328.75611   0.81276012    4455.3373    6443.2339   -1987.8966    1087.2119    4033.1711    596.34779            0   -9070.1891    4590.2905   -3224.7288    576642.72    4861.8101 
  224000    327.22449   0.81276012    4505.6371    6413.2158   -1907.5788    1115.3113    4134.6346     579.2126            0   -9097.0086    4583.3235   -3223.0522    576642.72    4286.5923 
  224100    329.71371   0.81276012    4525.1551    6462.0016   -1936.8465    1117.7862     4077.228    595.20877            0   -9107.2586    4600.2627   -3220.0735    576642.72    5079.5357 
  224200    323.62702   0.81276012    4475.4942    6342.7097   -1867.2156    1042.5049    4169.3262    605.24315            0   -9066.7246    4605.2579   -3222.8232    576642.72    4886.5856 
  224300    326.89656   0.81276012    4380.1144    6406.7889   -2026.6744     1087.258    4076.4962    596.19823            0   -9174.0711    4615.7657   -3228.3215    576642.72    3319.5522 
  224400    323.28051   0.81276012    4282.7554    6335.9184    -2053.163    1080.7575    4028.3348    591.53786            0   -9123.8534    4599.0165   -3228.9563    576642.72    4079.7866 
  224500    323.84124   0.81276012    4255.2785    6346.9081   -2091.6297    1050.2972    4046.9652    563.00624            0   -9117.2137    4594.5298   -3229.2143    576642.72    4465.3398 
  224600    326.38797   0.81276012    4430.7293    6396.8211   -1966.0917    1099.1923     4140.427    569.60516            0    -9141.023    4596.8763   -3231.1695    576642.72     3353.759 
  224700    328.78916   0.81276012    4510.6569    6443.8816   -1933.2248    1069.0091     4155.696    606.96648            0   -9132.3927    4602.7033   -3235.2069    576642.72    4193.7969 
  224800    328.54582   0.81276012    4492.1768    6439.1124   -1946.9356    1030.3526    4162.6286    597.91965            0   -9120.4244    4617.6206   -3235.0326    576642.72    4799.0623 
  224900    327.61838   0.81276012    4439.1863    6420.9356   -1981.7493    1108.8649    4098.3661    575.15949            0   -9130.7722    4602.3191   -3235.6868    576642.72    3551.1462 
  225000    327.32608   0.81276012    4306.5361     6415.207   -2108.6709     1065.612    4016.8828    572.84397            0   -9140.0087     4608.869   -3232.8699    576642.72     3626.595 
  225100    325.31481   0.81276012    4247.3339    6375.7883   -2128.4544    1038.4362    4000.3724    569.47344            0   -9123.5045    4617.9304   -3231.1624    576642.72    3453.5808 
  225200    327.34545   0.81276012    4427.0331    6415.5865   -1988.5534    1045.0957    4117.0925    576.95433            0   -9101.0144    4603.2342   -3229.9157    576642.72    4201.2306 
  225300    328.27223   0.81276012    4517.0495    6433.7503   -1916.7007    1074.0454    4157.4736    605.88376            0   -9136.9388    4612.3458   -3229.5104    576642.72    3947.1821 
  225400    325.14688   0.81276012    4499.3633    6372.4971   -1873.1337    1101.2004    4170.9815    616.59186            0   -9125.9525    4595.1589   -3231.1139    576642.72    3702.8492 
  225500    323.14008   0.81276012    4441.5121    6333.1662   -1891.6541    1133.9175    4106.5241    607.71183            0   -9092.7888    4581.0291   -3228.0478    576642.72    2903.0974 
  225600    327.85328   0.81276012    4340.9193    6425.5395   -2084.6201    1091.1915    4036.6461    588.59468            0   -9148.6089    4579.2475   -3231.6911    576642.72     3956.066 
  225700    324.84059   0.81276012    4284.4205    6366.4942   -2082.0737     1122.283    4061.2459    567.77193            0   -9182.1928    4580.1848   -3231.3666    576642.72    3809.5966 
  225800    321.05993   0.81276012    4263.1206    6292.3977   -2029.2771    1079.6578    4043.0972    570.61801            0   -9088.5101    4597.3173   -3231.4574    576642.72     4194.933 
  225900    327.09843   0.81276012     4415.275    6410.7453   -1995.4703    1100.6963    4063.3563    597.73409            0   -9101.0104    4578.2106   -3234.4572    576642.72    3873.1199 
  226000    331.02572   0.81276012    4509.7249    6487.7154   -1977.9906    1128.4562    4133.1033     594.7363            0   -9164.3717    4562.2625   -3232.1771    576642.72    3346.7139 
  226100     329.3056   0.81276012    4451.4167    6454.0033   -2002.5865    1097.8945    4092.5468    579.13686            0   -9095.2771    4553.5989   -3230.4864    576642.72    4727.7783 
  226200     324.9274   0.81276012    4342.4468    6368.1956   -2025.7488    1126.3981    4045.0434    570.86617            0   -9135.5839    4596.2864   -3228.7589    576642.72    3747.9553 
  226300    320.93465   0.81276012    4326.8462    6289.9423   -1963.0962    1105.8374    4110.1318    580.59224            0   -9127.3875    4595.7367   -3228.0068    576642.72    3786.2996 
  226400    323.56159   0.81276012    4410.3823    6341.4273    -1931.045    1107.0926    4118.9343    592.40861            0   -9117.5646    4594.9027   -3226.8185    576642.72    3600.2933 
  226500    328.11887   0.81276012    4429.2244    6430.7446   -2001.5203    1095.5538    4065.5257    592.21334            0   -9104.9214    4577.6785   -3227.5702    576642.72    4014.9217 
  226600    327.48007   0.81276012    4436.5537    6418.2249   -1981.6712    1101.4702     4087.466    566.91175            0   -9096.2913    4589.3222   -3230.5501    576642.72    4097.5773 
  226700    330.17031   0.81276012    4471.2241    6470.9506   -1999.7265    1078.7917    4072.8156    600.55084            0   -9107.3131    4584.8002   -3229.3717    576642.72     4917.723 
  226800    333.74821   0.81276012    4487.8916    6541.0731   -2053.1815    1055.6519    4096.1863    597.80942            0    -9153.944     4579.653   -3228.5381    576642.72    4296.1134 
  226900    325.51104   0.81276012    4346.4944    6379.6342   -2033.1398    1035.5219     4075.416    605.99184            0   -9098.9121     4581.964   -3233.1214    576642.72    4608.2939 
  227000    322.99926   0.81276012    4273.8618    6330.4062   -2056.5444    1040.4689    4066.1095     599.9628            0   -9118.8888    4584.6829   -3228.8797    576642.72    4115.3869 
  227100    322.05011   0.81276012    4377.0736    6311.8041   -1934.7305    1133.7459    4134.4563    597.45838            0   -9147.7647    4574.4589   -3227.0852    576642.72    3016.6569 
  227200    326.94966   0.81276012    4479.8845    6407.8296   -1927.9451    1098.6092    4048.7162    620.97151            0    -9057.637    4585.1706   -3223.7755    576642.72    4167.5557 
  227300    327.46449   0.81276012    4509.8297    6417.9196   -1908.0899    1126.1749    4141.1596    632.30998            0   -9179.9514    4596.8786   -3224.6616    576642.72    3781.3325 
  227400    326.57903   0.81276012    4475.5686    6400.5657   -1924.9971    1092.9963    4167.8078    589.47555            0   -9153.7423    4604.8576    -3226.392    576642.72    3854.5663 
  227500    326.80997   0.81276012    4367.6691    6405.0917   -2037.4226    1101.1696    4064.3341    606.01294            0   -9177.5175    4597.1653    -3228.587    576642.72    3322.1464 
  227600    320.77678   0.81276012    4271.7406    6286.8483   -2015.1077     1058.608    4132.3415    592.88976            0   -9161.2587    4587.3128   -3225.0012    576642.72    3401.6045 
  227700    322.79716   0.81276012    4319.2716    6326.4454   -2007.1738    1073.8389     4113.065    585.38977            0    -9132.677    4580.3643   -3227.1548    576642.72    3383.7631 
  227800    325.10362   0.81276012    4516.9608    6371.6494   -1854.6886    1122.1192    4187.7013    594.29249            0   -9118.0659    4584.2434    -3224.979    576642.72    3679.0241 
  227900    331.69069   0.81276012    4568.3005    6500.7482   -1932.4477    1120.0128    4148.2862    578.98247            0   -9144.2018    4591.9022   -3227.4295    576642.72    5455.3917 
  228000    326.70509   0.81276012    4454.9259    6403.0362   -1948.1103    1070.9589     4180.187     571.6838            0   -9162.3661    4611.7747   -3220.3486    576642.72    4631.9468 
  228100    326.82338   0.81276012    4372.1519    6405.3546   -2033.2027    1100.1443     4034.657    587.35799            0   -9137.3388    4599.5195   -3217.5426    576642.72    3421.3984 
  228200    329.26356   0.81276012    4403.5978    6453.1793   -2049.5815    1099.4822    3971.6195    593.30642            0    -9103.146    4606.3057   -3217.1494    576642.72    3964.7783 
  228300    330.07148   0.81276012    4554.1547    6469.0135   -1914.8587    1115.1969    4136.5197    590.93619            0   -9135.5135    4596.9956   -3218.9936    576642.72    3620.7263 
  228400    330.92648   0.81276012    4655.9925    6485.7706   -1829.7781    1110.7945    4161.8777    615.20668            0   -9094.4502    4596.7611    -3219.968    576642.72    5199.6751 
  228500    326.68785   0.81276012    4592.1013    6402.6983   -1810.5969    1126.0758    4144.5056     587.0895            0   -9053.5291    4605.1742   -3219.9128    576642.72    4478.4244 
  228600    331.65099   0.81276012    4473.2275    6499.9701   -2026.7426    1083.1951    4013.8941    589.75172            0    -9102.565     4609.154   -3220.1726    576642.72    4455.6626 
  228700    324.46675   0.81276012    4402.9594    6359.1674    -1956.208    1114.1032    4087.2236    601.93336            0   -9143.1016    4606.3463   -3222.7128    576642.72    4236.5843 
  228800    328.92681   0.81276012     4444.943    6446.5793   -2001.6363    1085.1524    4120.0024    578.85787            0   -9142.6951    4580.5749   -3223.5288    576642.72    3715.8202 
  228900    329.05721   0.81276012    4600.9084     6449.135   -1848.2265    1059.1964    4205.7492    608.77913            0   -9093.3825    4590.4769   -3219.0456    576642.72    5206.3568 
  229000    330.00079   0.81276012    4704.7718    6467.6282   -1762.8563    1095.8658    4254.4225    601.55406            0   -9086.5624      4584.27   -3212.4063    576642.72    4905.4723 
  229100    332.25253   0.81276012    4583.4196    6511.7596   -1928.3401    1114.6181     4110.927    591.87027            0   -9110.6575    4586.3625   -3221.4604    576642.72    4634.3927 
  229200    327.17145   0.81276012    4486.5513    6412.1764   -1925.6251    1085.7005    4168.1666    581.58357            0   -9114.9259    4577.1652    -3223.315    576642.72      4243.87 
  229300    327.39848   0.81276012     4448.811    6416.6258   -1967.8148    1118.6872    4102.0738    600.79633            0    -9139.776    4573.6681   -3223.2641    576642.72    2732.6506 
  229400    328.08758   0.81276012    4392.4951    6430.1314   -2037.6363    1073.2542     4095.778    585.50306            0   -9128.2975    4557.3408   -3221.2149    576642.72    4230.7219 
  229500    322.32528   0.81276012    4313.0327    6317.1971   -2004.1643    1127.7552    4065.2168    567.32705            0   -9105.2561    4564.4729   -3223.6803    576642.72    3280.8941 
  229600    323.38477   0.81276012    4208.0168    6337.9619   -2129.9451    1040.6358    4022.6201    559.13788            0   -9098.4707     4567.689   -3221.5571    576642.72    4109.8565 
  229700    320.92588   0.81276012    4271.6527    6289.7705   -2018.1177    1114.2935    4144.8292    539.54498            0   -9176.9129    4579.0215    -3218.894    576642.72    2045.6874 
  229800    328.83985   0.81276012    4448.7456     6444.875   -1996.1294    1080.3232    4141.7321    551.52695            0   -9142.0378    4589.7729   -3217.4468    576642.72    3388.2378 
  229900     329.7996   0.81276012    4488.4752     6463.685   -1975.2099    1073.4942    4114.1527    580.55231            0   -9123.8395    4597.8118   -3217.3813    576642.72    3744.8467 
  230000    331.25232   0.81276012    4518.2253    6492.1566   -1973.9313    1097.1584    4154.2655    554.61593            0   -9143.9034    4586.1731   -3222.2408    576642.72    3645.3029 
  230100    325.86825   0.81276012    4455.2744    6386.6352   -1931.3608    1079.7468    4171.7265    570.80104            0   -9117.6584    4588.4202    -3224.397    576642.72    3961.6583 
  230200     325.0806   0.81276012    4269.0334    6371.1981   -2102.1647    1056.7736    4135.8279    577.89238            0   -9217.7282    4564.5639   -3219.4943    576642.72    2932.3905 
  230300    324.70041   0.81276012    4292.1193    6363.7469   -2071.6276    1097.9542     4055.561    585.34562            0   -9173.1952    4574.1726   -3211.4658    576642.72    3229.0473 
  230400    324.02362   0.81276012    4397.2744    6350.4826   -1953.2082     1048.783     4140.208     594.8147            0   -9110.7146    4588.2009   -3214.5002    576642.72    4117.2624 
  230500    329.12065   0.81276012    4464.5693    6450.3783    -1985.809    1071.0941    4174.2572    587.02616            0   -9160.5093    4562.0772   -3219.7543    576642.72    3015.2157 
  230600    324.78659   0.81276012    4439.5267     6365.436   -1925.9093    1120.3119    4033.9698    609.38078            0   -9030.3995    4566.7271   -3225.8993    576642.72    4221.5463 
  230700     327.6167   0.81276012    4413.3939    6420.9028   -2007.5089    1067.0249    4185.0247    554.73063            0   -9134.3456    4548.3864   -3228.3299    576642.72    3474.7011 
  230800    324.09943   0.81276012     4281.699    6351.9683   -2070.2693     1085.585    4040.2492    581.18164            0   -9134.8035    4584.7147   -3227.1964    576642.72    3878.4845 
  230900    319.39129   0.81276012    4162.1353    6259.6943    -2097.559    1064.1119    4085.4346    572.15682            0   -9185.1155    4589.5388   -3223.6856    576642.72    3733.6255 
  231000    321.86363   0.81276012    4247.8668    6308.1494   -2060.2826    1083.2724    4060.3483    565.65018            0   -9134.9554    4586.6518     -3221.25    576642.72    3710.0617 
  231100    327.79005   0.81276012    4357.1163    6424.3002   -2067.1839    1092.1304    3964.9885    606.88423            0   -9093.1136    4580.2633   -3218.3367    576642.72    4328.6127 
  231200    328.48305   0.81276012    4462.1605    6437.8822   -1975.7217    1093.0114    4096.8487    592.28056            0   -9121.6049    4584.1775   -3220.4349    576642.72     3453.587 
  231300    332.96947   0.81276012    4521.8465    6525.8108   -2003.9643    1095.3176    4081.6738    598.67738            0   -9136.1498    4579.4018    -3222.885    576642.72    3812.9024 
  231400     327.4668   0.81276012    4471.9258    6417.9649   -1946.0391    1078.3282    4148.9858    582.17754            0   -9094.8579    4563.3236   -3223.9964    576642.72    3449.9147 
  231500    322.51735   0.81276012    4307.1557    6320.9615   -2013.8058    1102.8886    4035.1175    593.73485            0   -9095.5617    4575.7983   -3225.7833    576642.72    2996.0361 
  231600    326.30446   0.81276012    4300.1262    6395.1843   -2095.0581    1095.8351    4022.7919    584.36257            0   -9133.2886    4561.8267   -3226.5858    576642.72    2790.8524 
  231700    324.01598   0.81276012    4367.4972    6350.3328   -1982.8357    1093.3943    4090.0556    593.50346            0    -9117.127    4582.1127   -3224.7747    576642.72    3522.4368 
  231800    328.89254   0.81276012    4428.9424    6445.9078   -2016.9653    1091.0173    4075.6449    602.38618            0   -9146.7467    4582.3501   -3221.6171    576642.72    3011.5656 
  231900    327.72522   0.81276012    4474.0284    6423.0296   -1949.0012    1096.7447    4069.1209    615.49897            0   -9107.7813    4601.4811   -3224.0655    576642.72    3592.7838 
  232000    330.37914   0.81276012    4562.2018    6475.0433   -1912.8415    1085.9134    4133.8069    578.95176            0   -9088.3977      4601.54   -3224.6558    576642.72    4195.7256 
  232100    330.56513   0.81276012    4669.1462    6478.6885   -1809.5423    1106.2191    4138.4969    596.89453            0   -9033.7028    4606.0046   -3223.4548    576642.72    4553.3044 
  232200    329.58274   0.81276012    4683.2647    6459.4349   -1776.1701    1105.5647    4263.0086    607.43127            0   -9122.5746    4593.9849   -3223.5851    576642.72    3413.3552 
  232300    329.67562   0.81276012    4496.5786    6461.2552   -1964.6766    1067.0706    4097.8805    617.01222            0    -9129.981    4609.9103   -3226.5693    576642.72    4032.7505 
  232400    328.09009   0.81276012    4448.0509    6430.1806   -1982.1296    1082.8837    4131.7762    583.21723            0   -9151.3186     4599.595   -3228.2832    576642.72    3681.5336 
  232500    324.16218   0.81276012    4425.3347    6353.1982   -1927.8635    1083.6701    4173.5157    578.56837            0    -9103.996    4565.9941   -3225.6157    576642.72    4721.4089 
  232600    327.81614   0.81276012    4427.1606    6424.8115   -1997.6508    1049.2171    4132.1805    580.58397            0   -9110.9231    4576.3491   -3225.0585    576642.72    4493.9278 
  232700     323.5558   0.81276012    4367.5432    6341.3139   -1973.7707    1070.1839    4123.5399    586.26301            0   -9111.8104    4584.6423   -3226.5894    576642.72     5200.058 
  232800    325.23396   0.81276012    4304.8552    6374.2039   -2069.3486    1101.3362    4030.2227    585.32364            0   -9150.5384    4592.0755   -3227.7683    576642.72    3078.4315 
  232900    325.86784   0.81276012    4362.6404    6386.6271   -2023.9867    1093.0923    3998.2559    570.17998            0   -9066.0557    4608.4598   -3227.9189    576642.72    4630.1115 
  233000    329.52754   0.81276012     4522.386    6458.3529   -1935.9669    1133.4703    4069.6482    594.37444            0   -9116.0928    4613.6672   -3231.0342    576642.72    3982.5306 
  233100    322.63987   0.81276012    4555.4366    6323.3626   -1767.9261    1143.3001    4192.4429    595.10189            0   -9081.0036    4613.4962   -3231.2635    576642.72    4173.0129 
  233200    324.78823   0.81276012    4528.6706     6365.468   -1836.7974    1106.8433    4195.2255    582.22403            0   -9104.2241    4612.2632   -3229.1293    576642.72    3309.4677 
  233300    322.68728   0.81276012    4407.2114     6324.292   -1917.0806    1038.3826    4138.9716    601.94272            0   -9052.1813    4586.8285   -3231.0247    576642.72    4652.7268 
  233400    319.19879   0.81276012    4257.2759    6255.9215   -1998.6456    1093.4269    4070.9574    583.81921            0   -9117.6255    4597.1399   -3226.3636    576642.72    4194.1838 
  233500    324.15774   0.81276012     4242.812    6353.1111   -2110.2991    1057.6753    4030.3588    576.30327            0   -9149.1397    4603.7771   -3229.2739    576642.72    3375.9749 
  233600    326.11521   0.81276012    4477.1167    6391.4753   -1914.3586    1067.3339    4136.1673    572.87786            0   -9070.8676    4608.3337   -3228.2037    576642.72    3755.6406 
  233700     327.9052   0.81276012    4530.0386     6426.557   -1896.5184     1104.434    4150.7618    580.20722            0   -9119.4279    4613.3487   -3225.8422    576642.72      3648.56 
  233800    326.30761   0.81276012    4516.5699    6395.2461   -1878.6762    1133.9707    4107.3267    620.46343            0   -9129.6223    4616.6263    -3227.441    576642.72    2999.5982 
  233900    328.46212   0.81276012     4425.497     6437.472    -2011.975    1117.5952    3988.1244     586.6261            0   -9096.4418    4619.0312   -3226.9102    576642.72    3488.6197 
  234000    321.34239   0.81276012    4301.3212    6297.9337   -1996.6125    1082.1038    4086.9663    578.38931            0   -9112.6654     4593.385   -3224.7915    576642.72    3462.5143 
  234100     323.4221   0.81276012     4292.179    6338.6935   -2046.5145    1094.1112    3993.3356    584.93608            0   -9087.9008    4594.4674   -3225.4641    576642.72    3372.7184 
  234200    329.48302   0.81276012    4520.9444    6457.4804    -1936.536    1089.0234    4069.2074    591.71899            0   -9069.1861    4606.4319   -3223.7316    576642.72    5318.0754 
  234300    330.38796   0.81276012    4559.6079    6475.2161   -1915.6082    1114.6667    4120.4311    567.90333            0   -9097.6151    4604.1107    -3225.105    576642.72    4249.2879 
  234400    325.53649   0.81276012    4463.9551    6380.1331    -1916.178    1114.4312    4041.2658    601.43008            0   -9052.6524    4607.5607   -3228.2133    576642.72    4397.0045 
  234500    325.53356   0.81276012    4411.1271    6380.0756   -1968.9485     1161.581    3991.7861    616.13866            0   -9124.9568    4611.5564   -3225.0537    576642.72    4170.6012 
  234600    328.16861   0.81276012    4429.2676    6431.7195    -2002.452    1111.8833    4037.2164    595.01391            0    -9155.497    4629.7202   -3220.7889    576642.72    4052.8011 
  234700    330.81639   0.81276012    4525.4737    6483.6129   -1958.1392    1088.7404    4100.5047    591.65976            0   -9119.2694    4607.5569   -3227.3316    576642.72    4094.3578 
  234800    325.02566   0.81276012    4583.4221    6370.1215   -1786.6994    1140.6197    4161.0862    624.67134            0   -9103.8493    4619.7175   -3228.9448    576642.72    3411.9992 
  234900    330.33255   0.81276012    4535.0723    6474.1301   -1939.0579    1111.6697    4097.2382    598.67206            0   -9134.0011    4615.3318   -3227.9685    576642.72    3013.2942 
  235000    321.40377   0.81276012    4355.1088    6299.1367   -1944.0279    1067.5367    4088.7541    600.19499            0     -9096.35    4621.3397   -3225.5034    576642.72    3458.9376 
  235100    323.24184   0.81276012     4354.222    6335.1606   -1980.9386    1090.4905    4048.1007    598.65681            0   -9086.0734    4592.9439    -3225.057    576642.72    4386.6082 
  235200    326.13833   0.81276012     4439.086    6391.9285   -1952.8425    1094.4053    4120.0104    604.32744            0   -9129.4369    4586.1086   -3228.2573    576642.72    4053.4965 
  235300    324.09794   0.81276012    4488.7614    6351.9392   -1863.1778    1107.2812    4164.6323    575.00944            0   -9069.1417    4589.7198   -3230.6788    576642.72    5371.0705 
  235400    328.00755   0.81276012    4449.6622     6428.563   -1978.9008    1062.7083    4146.5607    593.38701            0   -9149.4839    4597.6195   -3229.6924    576642.72    2997.0574 
  235500    317.18287   0.81276012    4226.6523    6216.4119   -1989.7595    1069.6297    4092.1009    574.99942            0    -9085.808    4591.2564    -3231.938    576642.72    3635.4834 
  235600    321.50237   0.81276012    4206.0334     6301.069   -2095.0356    1134.7961      4001.58    577.90808            0   -9156.8588    4582.1619   -3234.6229    576642.72    2631.9399 
  235700    320.64342   0.81276012     4351.643    6284.2347   -1932.5917    1084.5759    4129.5631     599.3898            0   -9108.2469    4592.7974    -3230.671    576642.72    3900.0191 
  235800    328.65662   0.81276012    4459.6793    6441.2839   -1981.6046    1135.6014    4103.1303    595.59498            0   -9163.0749    4575.6103   -3228.4667    576642.72    2898.6995 
  235900    329.76044   0.81276012    4516.6366    6462.9175   -1946.2809    1109.8261    4120.4374    603.54923            0   -9118.0375    4565.7741   -3227.8303    576642.72    3266.8344 
  236000    331.13102   0.81276012    4477.4646    6489.7793   -2012.3148    1069.6613     4112.679    555.86722            0   -9103.5072    4580.5604   -3227.5754    576642.72    4735.8905 
  236100    323.76366   0.81276012    4299.2201    6345.3877   -2046.1676    1098.4381     4040.815     592.4276            0   -9146.4053    4591.9426   -3223.3857    576642.72    2890.7535 
  236200    323.85668   0.81276012    4296.9819    6347.2108   -2050.2289    1025.4118    4094.6204    572.31536            0   -9123.0584    4605.0665   -3224.5846    576642.72    4055.6549 
  236300    324.97414   0.81276012    4386.9285    6369.1116   -1982.1831    1103.1679    4106.9559     572.6155            0   -9142.6589    4605.5301   -3227.7936    576642.72     3666.258 
  236400    328.31526   0.81276012     4447.711    6434.5936   -1986.8826    1095.0545    4083.0669    579.15375            0   -9103.0498    4589.6272   -3230.7351    576642.72    4043.1429 
  236500     330.8515   0.81276012    4467.9662     6484.301   -2016.3348    1085.9532     4079.806    568.63668            0   -9095.7428    4577.4502    -3232.438    576642.72    4842.1646 
  236600    329.49346   0.81276012    4383.7481     6457.685   -2073.9369    1089.1249    4084.8325    582.96592            0   -9170.9117    4570.7094   -3230.6579    576642.72    3747.3719 
  236700    320.55178   0.81276012    4227.7016    6282.4386    -2054.737    1075.2409    4082.1741    593.10837            0   -9153.8435    4574.4955   -3225.9124    576642.72    3215.8694 
  236800    321.58572   0.81276012    4176.8728    6302.7025   -2125.8297    1070.0703    3994.8233     572.6497            0   -9126.0087    4588.6166   -3225.9809    576642.72    4081.0817 
  236900    320.65384   0.81276012    4341.5289    6284.4389     -1942.91     1115.238    4108.4625    570.42496            0   -9088.6176    4578.6396   -3227.0575    576642.72    3933.5166 
  237000    326.54229   0.81276012    4427.7674    6399.8456   -1972.0782    1093.6068    4103.1388    582.33077            0   -9086.7115     4566.487     -3230.93    576642.72    4122.8577 
  237100    327.46338   0.81276012    4478.9681    6417.8979   -1938.9298    1107.8404    4155.4666    589.95723            0   -9140.1195     4578.039   -3230.1135    576642.72    3149.4526 
  237200    326.48686   0.81276012    4490.8709    6398.7592   -1907.8883      1131.78    4160.8935    597.97555            0   -9161.6743    4591.2043   -3228.0672    576642.72    3723.4931 
  237300    324.58425   0.81276012    4407.9379    6361.4703   -1953.5325    1125.2433    4077.4063    579.35809            0   -9075.1023    4569.1064   -3229.5442    576642.72     4521.881 
  237400    321.89118   0.81276012     4265.927    6308.6892   -2042.7622    1090.3915    4072.4399    581.03731            0    -9146.454    4592.2119   -3232.3888    576642.72    3804.3099 
  237500    328.03846   0.81276012     4296.349    6429.1688   -2132.8198    1087.5351    4002.9951    564.04891            0   -9171.9211    4610.4665   -3225.9444    576642.72    4394.1173 
  237600    330.99973   0.81276012    4444.6501    6487.2061    -2042.556    1064.7101    4079.8686     584.1269            0     -9131.98    4584.2493    -3223.531    576642.72    3573.5396 
  237700    327.12805   0.81276012    4543.7909    6411.3258   -1867.5349     1139.116    4147.4793    580.62686            0   -9096.0733    4586.1773    -3224.861    576642.72    4005.6562 
  237800    332.33657   0.81276012    4514.4018    6513.4066   -1999.0048     1129.374     3979.428    593.38624            0   -9061.5198    4581.6613   -3221.3344    576642.72    3780.4996 
  237900    325.96555   0.81276012    4431.7569    6388.5422   -1956.7853    1068.6425    4072.5519    586.77177            0   -9061.9544    4596.5047   -3219.3018    576642.72      3919.88 
  238000    325.69402   0.81276012    4379.3261    6383.2205   -2003.8944    1071.2506    4099.7594    594.03704            0   -9141.9023    4594.8961   -3221.9352    576642.72    3568.1229 
  238100     323.7382   0.81276012    4450.0706    6344.8887    -1894.818    1084.1357    4070.7221     633.8656            0   -9052.5268    4594.4455   -3225.4601    576642.72    4695.1025 
  238200    331.89834   0.81276012    4622.8002    6504.8178   -1882.0176    1050.5786    4133.6349    633.38321            0   -9059.9872    4592.6768   -3232.3038    576642.72    5261.1469 
  238300    331.97513   0.81276012    4602.6898    6506.3228   -1903.6329    1061.4871    4178.8024    597.19346            0   -9103.6045    4595.0926    -3232.604    576642.72    4207.9099 
  238400    325.91286   0.81276012    4467.0327    6387.5095   -1920.4767    1123.8342    4059.4927    587.80824            0   -9079.0741    4619.7886   -3232.3263    576642.72     3899.241 
  238500    323.01626   0.81276012    4425.5813    6330.7395   -1905.1582    1063.6903    4177.2038    604.08065            0   -9143.8293    4622.9903    -3229.294    576642.72    4158.5474 
  238600    327.98082   0.81276012    4483.7488    6428.0391   -1944.2902    1059.0279    4164.4972    580.04923            0   -9149.4138    4630.4519   -3228.9026    576642.72    4243.7441 
  238700    326.73487   0.81276012    4487.7669    6403.6199    -1915.853    1106.8119    4129.3672     584.7589            0   -9115.0879    4608.5607   -3230.2638    576642.72    4140.0149 
  238800    322.89723   0.81276012    4404.0184    6328.4067   -1924.3883     1106.396    4130.1538     603.4035            0   -9151.7961    4621.8322   -3234.3777    576642.72    3702.7615 
  238900    323.90631   0.81276012    4281.1932    6348.1835   -2066.9903    1042.0114    4088.1348    568.73236            0   -9156.8531    4628.4816   -3237.4975    576642.72    4257.8778 
  239000    323.30376   0.81276012    4331.3042    6336.3742     -2005.07    1063.6054    4128.8645    576.99264            0   -9153.5649    4616.2898   -3237.2573    576642.72    3888.3343 
  239100      328.073   0.81276012    4470.3343    6429.8457   -1959.5114    1104.3049    4120.8053    591.03291            0   -9147.4741    4606.7925   -3234.9729    576642.72    3564.8929 
  239200    326.45929   0.81276012    4519.5583    6398.2188   -1878.6605    1149.8142      4157.45    594.26521            0   -9143.8314    4597.6923   -3234.0508    576642.72    3504.6727 
  239300     325.7441   0.81276012     4526.788    6384.2019   -1857.4139    1143.4367    4147.3067    591.51266            0   -9122.1015     4613.527   -3231.0954    576642.72     3456.606 
  239400    324.79053   0.81276012    4520.6179    6365.5131   -1844.8953     1092.893    4190.1907    584.22033            0   -9072.3917    4587.5772   -3227.3848    576642.72    4242.8641 
  239500    321.70959   0.81276012    4408.9643    6305.1302    -1896.166    1085.6891    4219.7166    581.45928            0   -9155.9738     4602.361   -3229.4182    576642.72    3849.3975 
  239600    324.44601   0.81276012    4329.1665    6358.7608   -2029.5943    1097.7064    4072.3237    545.87941            0   -9109.8793    4593.0993   -3228.7238    576642.72     3984.971 
  239700    327.33645   0.81276012    4353.4826    6415.4102   -2061.9276    1093.2393    4004.0951    542.57097            0   -9087.9802    4611.0188   -3224.8716    576642.72    3863.8656 
  239800    331.04226   0.81276012    4513.7085    6488.0397   -1974.3312    1137.7054    4089.0146    563.68097            0   -9154.4473    4615.1908   -3225.4757    576642.72    3173.2051 
  239900    334.37887   0.81276012    4565.9108    6553.4332   -1987.5224    1109.0375    4069.8338    593.47007            0   -9126.3903     4594.155   -3227.6285    576642.72    4757.8708 
  240000     331.6055   0.81276012     4507.489    6499.0785   -1991.5896    1082.9761    4038.2451    571.73029            0   -9061.2084    4603.6351   -3226.9677    576642.72    4307.5336 
  240100    328.49945   0.81276012     4435.232    6438.2035   -2002.9715    1071.6389    4126.0384    554.24403            0   -9124.2731    4594.1325   -3224.7521    576642.72    4025.5334 
  240200    328.27423   0.81276012    4404.3458    6433.7895   -2029.4437    1096.5947     4083.997    561.16433            0   -9142.7022    4593.5716   -3222.0692    576642.72    3770.8326 
  240300    325.45336   0.81276012    4397.5289    6378.5037   -1980.9748    1151.9424    4071.5776    557.03887            0   -9133.3856     4593.875   -3222.0231    576642.72     2744.547 
  240400    324.16882   0.81276012    4405.0295    6353.3283   -1948.2988    1068.9227    4146.1744    589.70185            0   -9150.8017    4620.7801    -3223.076    576642.72    3914.1433 
  240500    325.75382   0.81276012    4508.1072    6384.3924   -1876.2852    1123.6664    4141.5598    586.14973            0   -9098.0635    4593.2118   -3222.8094    576642.72    4005.7771 
[...]
 1194500    324.41444   0.81276012    4474.5048    6358.1422   -1883.6374    1108.3434    4187.2513     586.5702            0    -9144.894    4604.6746   -3225.5829    576642.72    3762.3857 
 1194600    325.15897   0.81276012    4492.0744     6372.734   -1880.6597    1084.9905    4132.4971    596.14924            0   -9071.0281    4601.9367   -3225.2051    576642.72    3954.8483 
 1194700    328.42104   0.81276012    4665.7762    6436.6669   -1770.8906    1081.7452    4186.9157    618.60596            0   -9040.8657    4602.8381     -3220.13    576642.72    3957.1603 
 1194800    329.47194   0.81276012    4741.6427    6457.2632   -1715.6205    1071.9083    4244.1158    618.82758            0   -9030.0827    4606.5838   -3226.9733    576642.72    5503.1869 
 1194900    333.52894   0.81276012    4613.4623    6536.7758   -1923.3134     1073.334    4105.7896    586.48625            0   -9038.2697    4575.2667   -3225.9203    576642.72    4570.6564 
 1195000    326.14404   0.81276012    4495.4435    6392.0404   -1896.5969    1119.4184    4049.0154    587.03049            0   -9031.4793    4604.7904   -3225.3724    576642.72    4340.6468 
 1195100    326.18572   0.81276012    4472.3388    6392.8572   -1920.5184    1136.8395    4037.1606    629.84043            0   -9083.5144    4585.2595    -3226.104    576642.72    3033.7471 
 1195200     327.6622   0.81276012     4498.268    6421.7945   -1923.5265    1122.1558    4060.6347    592.28877            0   -9068.8818    4596.9138   -3226.6377    576642.72    3850.0368 
 1195300    330.48133   0.81276012    4576.4132    6477.0462    -1900.633     1123.127    4094.5694    552.79974            0    -9039.671    4592.1375   -3223.5957    576642.72    4651.2853 
 1195400    328.85539   0.81276012    4670.2538    6445.1796   -1774.9257     1085.701    4211.2789    585.46748            0   -9044.5681    4611.3807   -3224.1857    576642.72    4271.9935 
 1195500    332.86506   0.81276012    4636.5527    6523.7644   -1887.2117    1114.5684    4111.6038    569.86964            0   -9047.2025    4586.6483   -3222.6993    576642.72    3915.4189 
 1195600    328.85143   0.81276012    4452.5437    6445.1019   -1992.5583    1062.0701    4080.4468    550.96377            0   -9066.8143    4604.7935   -3224.0182    576642.72    4139.2528 
 1195700    324.83066   0.81276012    4396.9092    6366.2996   -1969.3904    1147.3421    3993.7473    583.54518            0   -9073.7551    4600.9617   -3221.2318    576642.72    3061.3501 
 1195800    323.64342   0.81276012     4442.241    6343.0311   -1900.7902    1146.4358    4119.7593    574.11392            0   -9103.9083    4586.7203   -3223.9113    576642.72    2329.9229 
 1195900    327.38841   0.81276012     4568.508    6416.4286   -1847.9206    1100.5069    4139.8469    602.56536            0   -9045.3856    4580.1926   -3225.6467    576642.72    4079.4717 
 1196000    330.23194   0.81276012    4659.9536    6472.1584   -1812.2047    1138.3249    4220.9815    624.51812            0   -9152.1834    4578.9311   -3222.7769    576642.72    2620.3116 
 1196100    327.50123   0.81276012    4563.9665    6418.6396   -1854.6732    1083.5213    4162.4318    582.48591            0   -9056.9117    4592.4266   -3218.6271    576642.72    4588.7965 
 1196200    325.89559   0.81276012     4376.267    6387.1709   -2010.9039    1057.5827    4048.1831    598.22371            0   -9090.6018    4594.8242   -3219.1158    576642.72    3565.9899 
 1196300    321.12742   0.81276012    4390.1323    6293.7205   -1903.5882    1110.9773    4186.9993    585.72494            0   -9157.2502    4595.1635   -3225.2031    576642.72    2335.9956 
 1196400    323.38596   0.81276012    4438.4285    6337.9852   -1899.5567    1144.4488    4112.6604    577.37638            0   -9106.6281    4596.1816   -3223.5958    576642.72     3815.019 
 1196500    329.10699   0.81276012    4523.0517    6450.1106   -1927.0589    1138.2857    4062.6452    585.79823            0   -9080.6578      4589.72   -3222.8502    576642.72    3089.6085 
 1196600     332.5939   0.81276012    4598.0005      6518.45   -1920.4495     1065.275    4167.0322    566.14949            0   -9091.7161    4596.3641   -3223.5542    576642.72    3987.0755 
 1196700    327.69733   0.81276012    4525.1822    6422.4831   -1897.3008    1154.2564    4122.3255    582.60503            0   -9129.6403    4599.8264   -3226.6739    576642.72    2444.7285 
 1196800    325.09942   0.81276012    4352.2506    6371.5671   -2019.3165    1056.8979    4065.0081    594.75622            0   -9097.4396    4589.9313   -3228.4705    576642.72    3033.6338 
 1196900    326.47111   0.81276012    4325.7053    6398.4505   -2072.7452    1089.6003    4058.7019    591.12376            0   -9184.9014    4600.3002     -3227.57    576642.72    2699.6803 
 1197000    324.81659   0.81276012    4406.4126    6366.0239   -1959.6113    1131.5426    4089.9367    570.31641            0   -9129.4194    4605.4585   -3227.4461    576642.72     2475.544 
 1197100    326.05753   0.81276012    4464.5768    6390.3448    -1925.768    1122.9384    4136.0255    571.35894            0   -9138.9417    4609.7119    -3226.861    576642.72    2890.1064 
 1197200    328.15187   0.81276012    4463.7021    6431.3914   -1967.6893    1065.2466    4157.7212     584.1636            0   -9135.2574    4586.8524   -3226.4158    576642.72    2959.1593 
 1197300    325.55715   0.81276012    4460.5392     6380.538   -1919.9988    1086.3142    4143.6142    597.66334            0   -9132.5694    4613.8543   -3228.8756    576642.72     3908.874 
 1197400    325.89885   0.81276012    4465.1332    6387.2348   -1922.1016    1114.5133    4168.0025    562.39867            0   -9150.8143    4613.1401   -3229.3418    576642.72    2814.2277 
 1197500    328.38234   0.81276012    4467.7492    6435.9084   -1968.1592    1119.2959    4082.4868    586.24134            0   -9123.8681    4594.5119   -3226.8271    576642.72     3219.075 
 1197600    325.88247   0.81276012    4445.4617    6386.9138   -1941.4521    1141.9522    4102.4061    569.84657            0   -9132.5489    4604.3701   -3227.4781    576642.72    3960.3857 
 1197700    321.28254   0.81276012    4429.8752    6296.7607   -1866.8855    1071.0058    4201.4242    597.12376            0   -9117.1226    4612.2624   -3231.5791    576642.72    5111.2383 
 1197800    324.55237   0.81276012    4460.4588    6360.8454   -1900.3866    1109.9634    4121.7629    601.13197            0   -9128.0422    4628.2709   -3233.4736    576642.72    4168.6989 
 1197900    329.36407   0.81276012    4574.5594    6455.1492   -1880.5897    1066.7735    4229.6942    588.10254            0   -9147.3231    4614.3631      -3232.2    576642.72     3722.255 
 1198000    332.03383   0.81276012    4631.8937    6507.4732   -1875.5795    1132.8246    4148.3802    613.07546            0   -9146.9772    4607.9757   -3230.8582    576642.72    4037.9169 
 1198100    328.45838   0.81276012    4515.5048    6437.3986   -1921.8938    1071.0508    4084.9835    608.61217            0    -9069.832    4613.5867   -3230.2949    576642.72    4771.0459 
 1198200    322.49552   0.81276012    4355.3828    6320.5336   -1965.1508    1094.3819    4112.1641    592.51287            0   -9148.7657     4614.203    -3229.647    576642.72    3628.9294 
 1198300    322.37743   0.81276012    4389.5578    6318.2192   -1928.6614    1062.5723    4184.9807    600.35678            0   -9168.5144    4620.7557   -3228.8124    576642.72    3502.3556 
 1198400    330.88478   0.81276012    4489.7583    6484.9533    -1995.195     1114.687    4089.9513    615.38207            0   -9196.2527    4609.4903   -3228.4529    576642.72    2090.2652 
 1198500    333.67575   0.81276012    4539.1235     6539.653   -2000.5294     1090.641     4121.802    586.56147            0   -9179.1033    4608.3852   -3228.8158    576642.72    3038.6065 
 1198600    327.37394   0.81276012    4388.0465     6416.145   -2028.0984    1128.9316    4059.5787      564.958            0   -9155.5464    4603.5301   -3229.5505    576642.72    2371.4462 
 1198700    325.19227   0.81276012    4265.2386    6373.3866   -2108.1481    1073.9572    3985.7479    614.83591            0   -9148.6355    4600.2178   -3234.2714    576642.72    2056.1165 
 1198800    323.55179   0.81276012    4383.8409    6341.2353   -1957.3944    1126.7756    4094.6342    599.57289            0   -9152.4807    4608.4086    -3234.305    576642.72    2821.5712 
 1198900    325.32589   0.81276012    4506.5064    6376.0055   -1869.4991    1113.2553    4148.3018        608.6            0   -9123.5765     4619.175   -3235.2547    576642.72       3924.5 
 1199000    329.89737   0.81276012     4550.165    6465.6011   -1915.4361    1035.4798    4175.3336    591.93035            0   -9101.4266    4619.8122   -3236.5655    576642.72    3711.0677 
 1199100    329.20687   0.81276012    4532.3878    6452.0682   -1919.6804    1110.7675    4143.4622    599.69646            0      -9176.7    4632.6831   -3229.5896    576642.72    4073.6027 
 1199200    324.33755   0.81276012    4347.7076    6356.6352   -2008.9276    1051.3592    4108.0738    613.80927            0   -9161.3359    4611.3181    -3232.152    576642.72    3502.1798 
 1199300    327.23996   0.81276012    4323.8947     6413.519   -2089.6244    1087.5095    4010.8569    580.79911            0   -9166.2398    4629.7308   -3232.2808    576642.72    3953.8006 
 1199400    326.83991   0.81276012    4413.3641    6405.6785   -1992.3144    1095.1544     4067.439    608.10276            0   -9153.4132    4624.0934   -3233.6908    576642.72    5175.1125 
 1199500    328.13735   0.81276012    4515.9425    6431.1068   -1915.1644    1121.2413    4101.8292    602.25272            0   -9130.4285    4618.8615   -3228.9205    576642.72    3595.6463 
 1199600    329.38017   0.81276012     4577.927    6455.4646   -1877.5376    1105.1455    4141.6971    604.45741            0   -9123.9622    4625.9012   -3230.7766    576642.72    3817.8065 
 1199700     328.8152   0.81276012    4557.8533     6444.392   -1886.5387     1094.489    4100.6922    591.20022            0   -9076.0369    4637.2772   -3234.1604    576642.72    5113.5448 
 1199800    323.55098   0.81276012    4389.8938    6341.2194   -1951.3256    1118.1906    4126.4651    582.78305            0   -9164.4944    4620.3074   -3234.5774    576642.72    4188.3856 
 1199900    319.04025   0.81276012    4279.9664    6252.8143   -1972.8479    1103.5888    4104.7911    598.88277            0   -9133.6715    4588.1826   -3234.6216    576642.72    4312.5733 
 1200000    326.19686   0.81276012    4368.3555    6393.0756   -2024.7201    1076.1924    4046.9279    609.98401            0   -9116.4883    4593.0814   -3234.4175    576642.72    3545.1599 
 1200100    330.39874   0.81276012    4492.8903    6475.4275   -1982.5371    1031.1598    4120.3987    593.06386            0   -9092.8406    4595.2859   -3229.6048    576642.72    5449.0427 
 1200200    327.43597   0.81276012    4507.8985    6417.3606   -1909.4621    1061.3201    4148.0119    586.19604            0   -9079.1434    4604.5122    -3230.359    576642.72     4270.983 
 1200300    326.83115   0.81276012    4472.4529    6405.5068   -1933.0539    1161.6488    4062.1971    595.32934            0   -9124.6586    4602.3239   -3229.8944    576642.72    2816.6505 
 1200400    320.69447   0.81276012       4366.2    6285.2352   -1919.0352    1130.1374    4082.1268    601.76803            0   -9095.1331    4593.9678   -3231.9022    576642.72    3122.5755 
 1200500    319.64412   0.81276012    4261.0672    6264.6496   -2003.5824    1096.5033    4098.1588    583.28625            0   -9159.9787    4608.4881   -3230.0402    576642.72    3170.4683 
 1200600     330.5526   0.81276012    4394.0027    6478.4429   -2084.4402    1067.8791    4082.2821    589.37209            0   -9185.1922     4592.884   -3231.6651    576642.72    3235.2377 
 1200700    325.03997   0.81276012    4519.7088    6370.4019   -1850.6931     1092.086    4104.4794    605.81713            0   -9027.5131     4603.227   -3228.7896    576642.72     4592.792 
 1200800    331.29348   0.81276012    4544.4636    6492.9632   -1948.4996    1073.8093    4111.2372    583.13009            0   -9117.1809    4625.0919   -3224.5872    576642.72    3740.5761 
 1200900    331.49736   0.81276012    4502.8422    6496.9592    -1994.117    1062.8735    4062.2416     593.5515            0   -9115.5256    4628.8494   -3226.1074    576642.72     4002.206 
 1201000    326.49236   0.81276012    4401.5485     6398.867   -1997.3185    1078.8868    4074.7364    588.34659            0   -9133.6167    4621.2744   -3226.9461    576642.72    4405.8158 
 1201100    322.43019   0.81276012    4328.3315    6319.2531   -1990.9216    1097.5496     4091.794    599.97503            0   -9157.8037    4605.8067   -3228.2434    576642.72    2527.4691 
 1201200    324.41873   0.81276012    4405.1879    6358.2262   -1953.0383    1138.3795    4015.8999    610.67602            0   -9091.5472    4601.6743   -3228.1209    576642.72    3435.4516 
 1201300    328.15931   0.81276012    4565.3622    6431.5372    -1866.175    1095.4948    4098.2564    610.89877            0    -9057.601     4611.653    -3224.877    576642.72    4188.5552 
 1201400     328.2924   0.81276012    4589.7842    6434.1457   -1844.3615    1161.9759    4069.4644    619.41324            0   -9062.7841    4594.3339   -3226.7648    576642.72    3841.5058 
 1201500    328.48087   0.81276012    4540.3934    6437.8395   -1897.4461    1092.0101    4078.1428    615.82272            0   -9060.3788    4605.1317   -3228.1746    576642.72    4061.9502 
 1201600    324.58752   0.81276012    4358.9175    6361.5343   -2002.6167    1153.8459    3972.9869    588.01015            0   -9094.2297    4607.6557   -3230.8857    576642.72     3463.011 
 1201700    321.10093   0.81276012    4288.3304    6293.2012   -2004.8708    1096.3971    4057.1413    568.29402            0   -9118.3788     4620.927   -3229.2515    576642.72    3048.0551 
 1201800    326.21834   0.81276012    4368.8673    6393.4965   -2024.6291    1102.7054    4054.7504    596.55611            0   -9139.2947    4589.7556    -3229.102    576642.72    3024.0681 
 1201900    328.46718   0.81276012    4455.1179    6437.5711   -1982.4533    1119.8494    4120.0703    591.18793            0   -9158.1863    4573.5423   -3228.9169    576642.72     3270.524 
 1202000    325.70149   0.81276012    4467.3403    6383.3669   -1916.0266    1109.5933    4108.3197    579.99994            0   -9058.0348    4575.9896   -3231.8943    576642.72    4355.5384 
 1202100    322.81759   0.81276012     4436.246    6326.8458   -1890.5998    1140.6167    4115.1247    580.28862            0   -9089.1066    4594.8195   -3232.3426    576642.72    3622.9405 
 1202200    320.08672   0.81276012    4304.3641     6273.324   -1968.9598    1068.8951    4084.5917    590.53898            0    -9092.958    4607.5256   -3227.5532    576642.72    4477.5427 
 1202300    324.92094   0.81276012     4264.955     6368.069    -2103.114    1023.2652     4070.075    553.73156            0   -9126.6142    4606.6511   -3230.2226    576642.72    4099.5324 
 1202400     326.9462   0.81276012    4424.3559    6407.7616   -1983.4057    1101.2043    4092.6465    590.86912            0   -9134.1085    4600.5632   -3234.5804    576642.72    3119.0997 
 1202500     327.0639   0.81276012    4520.3941    6410.0686   -1889.6745     1108.837    4151.5329    584.19022            0   -9113.6216    4609.0702   -3229.6833    576642.72    3776.9859 
 1202600    330.29599   0.81276012    4520.8075    6473.4136   -1952.6061    1108.5072    4091.7872    606.68892            0   -9124.6917    4593.8271   -3228.7249    576642.72    3531.2634 
 1202700    329.49501   0.81276012    4444.4239    6457.7154   -2013.2915    1088.9049    4057.7613    577.38464            0   -9102.8908    4594.7018   -3229.1534    576642.72    3883.3279 
 1202800    323.34637   0.81276012    4337.0449    6337.2093   -2000.1644    1083.2443    4071.1513    608.24026            0   -9143.9093    4609.6334   -3228.5244    576642.72    3290.0033 
 1202900    323.13493   0.81276012    4282.6116    6333.0654   -2050.4538    1089.8929    4000.4938    590.84149            0   -9111.1681    4609.2105   -3229.7244    576642.72    3141.8472 
 1203000    328.48059   0.81276012    4423.8602    6437.8339   -2013.9737    1145.8377    4055.6327    579.32513            0   -9163.4797    4597.8385   -3229.1281    576642.72    2890.9725 
 1203100    327.72984   0.81276012    4533.7345    6423.1202   -1889.3857    1115.7256    4102.2568    595.44085            0   -9095.8301    4624.6245   -3231.6034    576642.72    4553.6529 
 1203200    329.93066   0.81276012    4547.8225    6466.2536   -1918.4312    1117.4257    4108.8564    611.14225            0    -9135.275    4607.2923   -3227.8729    576642.72    3876.1414 
 1203300    324.18163   0.81276012    4471.9431    6353.5794   -1881.6363    1114.0239    4174.0533    593.84821            0   -9146.0163    4612.1963   -3229.7418    576642.72    4382.0808 
 1203400    321.60056   0.81276012    4277.9714    6302.9935   -2025.0221    1101.2539    4057.6873    570.19224            0   -9136.9023    4610.6017    -3227.855    576642.72    3413.8532 
 1203500    328.26391   0.81276012     4282.947    6433.5873   -2150.6403    1051.0674    4028.6897    562.49575            0   -9184.3606    4620.8478   -3229.3803    576642.72    3376.8345 
 1203600    325.07465   0.81276012    4365.7781    6371.0815   -2005.3034    1065.5595    4129.9793    581.48361            0    -9167.439    4614.0318   -3228.9186    576642.72     3505.078 
 1203700    326.88294   0.81276012     4445.417     6406.522    -1961.105    1095.8351    4098.1249    595.64336            0   -9139.6805    4619.0634   -3230.0913    576642.72    3439.8112 
 1203800    324.22637   0.81276012    4482.6628    6354.4563   -1871.7935    1109.2182    4140.2772     595.9701            0   -9102.7285    4613.5563   -3228.0869    576642.72    4264.2546 
 1203900    328.96006   0.81276012    4498.3052     6447.231   -1948.9258    1073.0829    4144.5113    600.27968            0    -9153.703    4612.5341   -3225.6307    576642.72    3037.2553 
 1204000    329.74189   0.81276012    4478.7609    6462.5539    -1983.793    1110.2457    4019.2229    593.03879            0   -9106.3585    4621.6418   -3221.5838    576642.72    3468.7745 
 1204100    326.57291   0.81276012    4425.4878    6400.4457    -1974.958    1068.3997    4154.3508    591.31019            0   -9172.2232    4606.9012   -3223.6965    576642.72    3633.8333 
 1204200    318.03967   0.81276012    4229.7887    6233.2041   -2003.4154    1080.5983    4095.0238    588.64043            0   -9148.3076    4606.9179   -3226.2882    576642.72    3408.7766 
 1204300    323.76749   0.81276012    4266.9305    6345.4627   -2078.5322    1062.4512    4055.4068    572.93446            0   -9135.7312    4597.5435    -3231.137    576642.72     3853.274 
 1204400    324.49158   0.81276012    4414.6811    6359.6541    -1944.973    1042.1179    4207.8211    560.59739            0   -9126.9358    4601.2448   -3229.8185    576642.72    3562.0786 
 1204500    328.25594   0.81276012    4473.7977    6433.4311   -1959.6334    1066.7674    4143.1958     581.4657            0    -9134.492    4612.5705   -3229.1409    576642.72    3565.0436 
 1204600    328.75637   0.81276012    4504.7134     6443.239   -1938.5256     1043.537    4125.8228    597.84319            0   -9071.4746    4600.8925   -3235.1464    576642.72    3942.8889 
 1204700    330.89356   0.81276012    4616.1398    6485.1254   -1868.9856    1111.4506    4171.8377    591.60693            0   -9127.2449    4616.1807   -3232.8167    576642.72    3537.9219 
ERROR on proc 4: Shake atoms 6411 6425 6426 6424 missing on proc 4 at step 1204707 (../fix_shake.cpp:555)
