LAMMPS (31 Mar 2017)
  using 1 OpenMP thread(s) per MPI task
Reading restart file ...
  restart file = 31 Mar 2017, LAMMPS = 31 Mar 2017
  orthogonal box = (0 0 0) to (81.6 70.667 100)
  4 by 3 by 1 MPI processor grid
  7856 atoms
  6400 bonds
  11520 angles
  11520 dihedrals
Finding 1-2 1-3 1-4 neighbors ...
  special bond factors lj:   0          0          0.5       
  special bond factors coul: 0          0          0.5       
  4 = max # of 1-2 neighbors
  6 = max # of 1-3 neighbors
  12 = max # of 1-4 neighbors
  14 = max # of special neighbors
1200 atoms in group gold
6656 atoms in group dynamic
Finding SHAKE clusters ...
  0 = # of size 2 clusters
  1536 = # of size 3 clusters
  256 = # of size 4 clusters
  0 = # of frozen angles
Ewald initialization ...
WARNING: System is not charge neutral, net charge = 1.024e-05 (../kspace.cpp:302)
WARNING: Using 12-bit tables for long-range coulomb (../kspace.cpp:321)
  G vector (1/distance) = 0.130214
  estimated absolute RMS force accuracy = 0.0385551
  estimated relative force accuracy = 0.000116108
  KSpace vectors: actual max1d max3d = 472 7 1687
                  kxmax kymax kzmax  = 6 5 7
Neighbor list info ...
  update every 1 steps, delay 0 steps, check yes
  max neighbors/atom: 30000, page size: 300000
  master list distance cutoff = 22
  ghost atom cutoff = 22
  binsize = 11, bins = 8 7 10
  3 neighbor lists, perpetual/occasional/extra = 3 0 0
  (1) pair lj/cut/coul/long, perpetual, skip from (3)
      attributes: half, newton on
      pair build: skip
      stencil: none
      bin: none
  (2) pair morse, perpetual, skip from (3)
      attributes: half, newton on
      pair build: skip
      stencil: none
      bin: none
  (3) neighbor class addition, perpetual
      attributes: half, newton on
      pair build: half/bin/newton
      stencil: half/bin/3d/newton
      bin: standard
Setting up Verlet run ...
  Unit style    : real
  Current step  : 200100
  Time step     : 1
Per MPI rank memory allocation (min/avg/max) = 31.74 | 31.74 | 31.74 Mbytes
Step Temp Density TotEng KinEng PotEng E_bond E_angle E_dihed E_impro E_vdwl E_coul E_long Volume Enthalpy 
  200100    401.29779   0.81276012    5718.6412    7864.9657   -2146.3245    1083.6841    4044.2047     580.0086            0   -9101.2578    4469.7562   -3222.7204    576642.72    10831.751 
  200200    324.17243   0.81276012    4221.6311    6353.3991    -2131.768    1105.4107    4091.9021    583.38097            0   -9133.5756    4442.1961   -3221.0823    576642.72    5768.4465 
  200300    329.91055   0.81276012    4368.7573    6465.8595   -2097.1022    1121.6587    4119.1387    609.54626            0   -9167.1163    4444.0203   -3224.3499    576642.72    6464.0267 
  200400    332.99587   0.81276012    4363.8866    6526.3282   -2162.4416     1092.815    4056.1879    548.64728            0   -9106.4206    4470.1148   -3223.7859    576642.72    6964.0585 
  200500    326.54312   0.81276012    4291.2496    6399.8619   -2108.6123    1093.3391    4122.6617     587.6882            0   -9153.7756    4466.5071   -3225.0328    576642.72    6584.6586 
  200600    323.59417   0.81276012    4244.4018    6342.0658    -2097.664     1103.462    4074.2746    595.08228            0   -9102.1185    4454.9476   -3223.3119    576642.72    6219.2803 
  200700    325.49982   0.81276012      4244.94    6379.4143   -2134.4743    1114.3357    4062.0128    552.12109            0   -9115.9023    4475.6852   -3222.7269    576642.72    6139.6399 
  200800    328.48295   0.81276012    4422.9431    6437.8803   -2014.9372    1100.0211    4174.0284    557.29356            0   -9093.4234     4472.137   -3224.9938    576642.72    7250.4876 
  200900    327.99414   0.81276012    4476.5145    6428.3001   -1951.7857      1089.73    4196.2335    562.55114            0   -9061.0006    4487.4063    -3226.706    576642.72    6796.9149 
  201000    326.95584   0.81276012    4364.3295    6407.9507   -2043.6212    1115.2501    4060.4489    572.37319            0    -9054.544    4488.9954   -3226.1448    576642.72    5728.0472 
  201100    328.20488   0.81276012    4273.7996    6432.4303   -2158.6306    1097.2982    4056.0689    574.35584            0   -9155.8584    4494.6789    -3225.174    576642.72    5046.0806 
  201200    327.16788   0.81276012    4271.1789    6412.1063   -2140.9274     1079.505     4083.564    574.69367            0   -9128.3149    4476.3598   -3226.7349    576642.72    5329.4314 
  201300    328.96189   0.81276012    4351.5082    6447.2668   -2095.7586    1055.2845    4132.3956    566.65597            0   -9104.1283    4478.2516   -3224.2179    576642.72    5631.3084 
  201400    336.15696   0.81276012    4551.0802    6588.2819   -2037.2017    1119.3314    4129.6242    552.99574            0   -9095.0867    4479.3652   -3223.4315    576642.72    6247.0603 
  201500    334.96406   0.81276012    4534.2437    6564.9023   -2030.6586    1087.3514    4108.9428    573.70431            0   -9073.8777    4498.0344   -3224.8138    576642.72    6239.4559 
  201600    335.01911   0.81276012    4408.3792    6565.9813   -2157.6021    1067.3555    4089.8892    573.20424            0   -9154.0665    4491.1374    -3225.122    576642.72    4416.6803 
  201700    326.56109   0.81276012    4280.5895    6400.2139   -2119.6244    1043.0664    4134.6946    582.19146            0   -9135.8603    4484.6384    -3228.355    576642.72    4051.1502 
  201800    326.45212   0.81276012    4279.1458    6398.0784   -2118.9326    1110.4886    4038.4889    592.00251            0   -9127.2845    4490.7353   -3223.3634    576642.72     4476.122 
  201900    327.04994   0.81276012    4370.4797    6409.7948   -2039.3151    1112.4081    4150.8734    575.81171            0   -9152.5578    4497.0865    -3222.937    576642.72    4251.3338 
  202000    331.30245   0.81276012    4539.2177    6493.1391   -1953.9214    1107.2857    4197.9399    584.29211            0   -9121.2923    4500.3668   -3222.5137    576642.72    6128.3368 
  202100    332.27067   0.81276012    4506.0099    6512.1151   -2006.1052    1092.5118    4219.5405    579.70273            0   -9175.7357    4505.5674   -3227.6919    576642.72    4560.9589 
  202200    326.17861   0.81276012    4390.8834    6392.7179   -2001.8345    1111.9398    4124.9522    608.72989            0   -9122.5769    4502.7996    -3227.679    576642.72    4988.8171 
  202300    326.08779   0.81276012    4353.7608    6390.9379   -2037.1771    1095.0447    4115.2782    600.65339            0    -9121.847    4497.5079   -3223.8144    576642.72    5516.1288 
  202400    327.52469   0.81276012    4332.7828    6419.0993   -2086.3165    1134.1841    4110.0524    561.00816            0   -9166.0267     4498.472   -3224.0065    576642.72    4313.7795 
  202500    323.28596   0.81276012    4221.8925    6336.0253   -2114.1328    1060.2424    4116.5116    563.90179            0   -9153.6806    4518.8798   -3219.9879    576642.72    5525.2899 
  202600     320.8422   0.81276012    4158.8866    6288.1305   -2129.2439    1049.0418    4132.1245    562.62053            0   -9150.5764    4500.5164   -3222.9707    576642.72    4810.5163 
  202700    324.82858   0.81276012    4329.5497    6366.2588   -2036.7091    1047.2909    4199.0817    569.02272            0   -9122.7221    4489.6375   -3219.0197    576642.72    5517.8046 
  202800    329.52664   0.81276012    4392.6449    6458.3353   -2065.6903    1102.3702    4083.8514    574.46662            0   -9115.7242    4508.2033   -3218.8577    576642.72    5115.6945 
  202900    330.24506   0.81276012    4370.6077    6472.4156   -2101.8078    1112.4686    4056.3085    578.99464            0   -9132.7059    4502.9106   -3219.7843    576642.72    4470.4273 
  203000     326.8573   0.81276012    4321.5255    6406.0194   -2084.4939    1110.3549    4087.1604    592.01669            0   -9142.4154    4487.0744   -3218.6849    576642.72    3636.6988 
  203100    320.53942   0.81276012    4162.3087    6282.1964   -2119.8877    1088.3257     4043.785    572.18354            0   -9088.9369    4488.3866   -3223.6316    576642.72    4865.6676 
  203200    325.25035   0.81276012    4127.2036    6374.5251   -2247.3214    1074.0965    4008.4591    580.22847            0   -9165.0533    4479.6101   -3224.6623    576642.72    4254.9169 
  203300    326.87682   0.81276012    4317.8686     6406.402   -2088.5333    1134.7023     4040.244    597.19677            0     -9130.13    4497.0398   -3227.5863    576642.72    4878.8471 
  203400    332.95508   0.81276012    4370.9039    6525.5286   -2154.6247    1080.7687    4061.2694    572.13559            0   -9152.1291    4508.2675   -3224.9368    576642.72    4649.6551 
  203500    330.90438   0.81276012    4366.9643    6485.3375   -2118.3731    1081.8645    4092.1127    577.25832            0   -9175.3915    4528.8616   -3223.0788    576642.72    4013.6107 
  203600    325.53826   0.81276012    4340.6777    6380.1677     -2039.49    1122.6507    4108.5974    576.70905            0   -9168.7389    4544.7806   -3223.4889    576642.72    4191.9811 
  203700    326.56859   0.81276012    4307.6013     6400.361   -2092.7597    1129.0138    4077.9313    558.70033            0   -9188.1078     4549.692   -3219.9894    576642.72    3749.9189 
  203800    324.49841   0.81276012    4320.8012    6359.7879   -2038.9867    1136.9739    4090.9985     575.3202            0   -9145.7874    4527.8511   -3224.3431    576642.72    3943.3967 
  203900    329.24591   0.81276012    4456.4327    6452.8333   -1996.4006    1108.5349     4105.992    603.66783            0   -9097.6534    4506.9734   -3223.9153    576642.72    5256.5322 
  204000    330.60821   0.81276012    4520.2638    6479.5329   -1959.2691     1091.176    4201.0971     589.6538            0   -9119.5648     4504.362   -3225.9933    576642.72    4689.2518 
  204100     332.2096   0.81276012    4433.5458    6510.9181   -2077.3723    1105.4126    4103.2271    570.47813            0    -9162.301    4526.9495   -3221.1387    576642.72    5251.9461 
  204200    320.82004   0.81276012    4282.4223    6287.6962   -2005.2739     1108.066    4138.6545    577.79029            0   -9149.5598    4537.5125   -3217.7373    576642.72    3794.8529 
  204300    326.33725   0.81276012    4279.3291     6395.827   -2116.4978    1151.3198    4038.0595    566.26861            0   -9203.8711    4550.5116   -3218.7863    576642.72    3610.8487 
  204400    327.41872   0.81276012    4321.0019    6417.0226   -2096.0207    1103.2561     4049.358    559.81953            0   -9105.1613    4517.9578   -3221.2508    576642.72    4809.5572 
  204500    324.78147   0.81276012    4393.7408    6365.3355   -1971.5948     1139.606    4185.8175    585.76368            0   -9176.5938     4519.277   -3225.4651    576642.72    2461.5006 
  204600    334.68623   0.81276012    4508.5287    6559.4573   -2050.9285    1112.9491    4069.0713    587.13188            0   -9099.9955    4504.1111   -3224.1963    576642.72    4436.5739 
  204700    333.61715   0.81276012    4564.3932    6538.5045   -1974.1113    1102.8697    4158.3371    577.14015            0   -9110.9635    4520.0738   -3221.5685    576642.72    4580.2986 
  204800    326.75499   0.81276012    4361.6266    6404.0142   -2042.3875    1105.8853    4114.7082    580.38104            0   -9144.0948    4526.1007   -3225.3679    576642.72    5104.5112 
  204900    327.16098   0.81276012    4272.3518    6411.9712   -2139.6194    1063.6602    4120.7247    567.85858            0   -9187.4899    4523.9144   -3228.2874    576642.72    4714.1942 
  205000     322.1619   0.81276012    4293.5626     6313.995   -2020.4323    1092.0475    4160.9233    588.70822            0   -9139.5091     4509.844   -3232.4463    576642.72    4157.2506 
  205100    327.49374   0.81276012    4407.3183    6418.4929   -2011.1745    1132.5368    4114.1686    572.64961            0   -9118.3222    4519.6312   -3231.8386    576642.72    3725.2863 
  205200    335.78604   0.81276012    4494.5641    6581.0123   -2086.4482    1103.3289     4089.404    551.62902            0   -9142.1314    4542.6702   -3231.3488    576642.72    4429.3976 
  205300    325.28517   0.81276012    4410.4017    6375.2074   -1964.8057    1127.3472     4135.257    582.56728            0   -9122.1379    4540.5855   -3228.4248    576642.72    4322.6452 
  205400    322.31269   0.81276012    4208.2541    6316.9503   -2108.6963    1090.0082    4032.9549    557.64296            0   -9096.4702    4537.5755   -3230.4076    576642.72    4165.1513 
  205500    322.83589   0.81276012    4229.2347    6327.2044   -2097.9697    1076.2925    4109.1862    595.89921            0   -9174.7001    4523.7631   -3228.4105    576642.72    4462.9209 
  205600    329.26763   0.81276012    4328.9124    6453.2591   -2124.3466    1051.6603    4047.6662    607.33347            0   -9117.2149    4513.4419   -3227.2336    576642.72    4720.0127 
  205700    330.01997   0.81276012    4398.9929     6468.004   -2069.0111     1132.268    4117.8658    578.48238            0   -9197.0233    4524.0397   -3224.6438    576642.72    3379.3003 
  205800    329.80801   0.81276012    4428.8916    6463.8498   -2034.9582    1131.4522    4012.6093    617.75414            0   -9111.2481    4536.6871   -3222.2128    576642.72    3317.0683 
  205900    329.26295   0.81276012    4383.8691    6453.1674   -2069.2982    1098.3052    4066.9577    572.29501            0   -9128.4277    4545.4495    -3223.878    576642.72    4322.4714 
  206000    319.51421   0.81276012    4222.9172    6262.1034   -2039.1863    1106.5027    4123.1177    602.17459            0    -9180.564    4535.6753   -3226.0926    576642.72    2803.2227 
  206100    322.50398   0.81276012     4199.598    6320.6994   -2121.1014    1048.4715    4132.6552    573.56319            0   -9188.6249     4539.511   -3226.6774    576642.72    4623.1156 
  206200    326.77768   0.81276012    4341.7467    6404.4589   -2062.7122    1103.9989    4122.0599    591.31538            0   -9181.7463    4531.6472   -3229.9873    576642.72    4195.8326 
  206300     330.6375   0.81276012    4426.3099    6480.1069   -2053.7969    1109.7493    4123.7436    602.62279            0   -9195.8816    4535.9367   -3229.9677    576642.72    4312.3243 
  206400    329.10868   0.81276012    4446.7069    6450.1438    -2003.437    1120.8761    4116.2975    589.41898            0   -9165.6634    4559.0417   -3223.4078    576642.72    4364.1583 
  206500    326.63989   0.81276012    4397.0342    6401.7584   -2004.7242    1114.8443    4178.5712    566.38826            0   -9191.4435    4551.2139   -3224.2984    576642.72    4113.6076 
  206600    322.59807   0.81276012    4205.8226    6322.5435   -2116.7209    1074.5287      4077.31    585.25666            0   -9173.7641    4542.6337   -3222.6859    576642.72    4303.9512 
  206700      319.746   0.81276012     4190.686    6266.6462   -2075.9602    1103.4685    4082.6721    557.65189            0   -9146.4069    4545.0495   -3218.3952    576642.72    3720.2297 
  206800    321.94228   0.81276012    4292.1612    6309.6907   -2017.5295    1160.5278    4045.5906    584.52451            0   -9136.2781    4548.9972   -3220.8915    576642.72    3425.2523 
  206900    325.13847   0.81276012    4366.9566    6372.3323   -2005.3757    1134.1797    4076.1253     592.4237            0   -9143.3572    4552.5833   -3217.3305    576642.72    4826.7788 
  207000    324.49582   0.81276012    4424.6085    6359.7372   -1935.1287    1087.2824     4158.158    614.07595            0   -9123.3262    4546.3473   -3217.6662    576642.72    4109.8066 
  207100    336.28797   0.81276012     4523.555    6590.8495   -2067.2945    1087.2062    4120.8502    594.67195            0   -9211.8127    4558.0279   -3216.2381    576642.72    4146.6892 
  207200    324.84419   0.81276012    4516.0039    6366.5648   -1850.5609    1093.5252    4230.8715    615.66556            0   -9129.4337    4561.3866   -3222.5761    576642.72    6417.9507 
  207300    320.61372   0.81276012    4366.2947    6283.6526    -1917.358    1099.2218    4152.4958    598.47187            0   -9123.9289    4575.0032   -3218.6218    576642.72    5082.0007 
  207400    322.11325   0.81276012     4311.327    6313.0415   -2001.7144    1096.6601    4152.7456    606.85161            0   -9204.6278    4563.5786   -3216.9225    576642.72    4146.3788 
  207500    327.76517   0.81276012    4405.4589    6423.8126   -2018.3536    1090.9248    4062.3396    583.97731            0   -9118.7662     4583.973   -3220.8022    576642.72    5418.5579 
  207600     326.6542   0.81276012    4526.6069    6402.0388   -1875.4319     1065.475    4196.9782    599.42725            0   -9086.0947    4570.1704   -3221.3882    576642.72    4629.7709 
  207700    324.47066   0.81276012    4521.0491    6359.2441    -1838.195     1145.586    4175.8436    604.45092            0   -9119.7632    4578.8316   -3223.1439    576642.72    4452.3275 
  207800    326.20227   0.81276012    4451.5866    6393.1816    -1941.595    1130.0789    4096.6983    598.63872            0   -9105.8623    4566.3089   -3227.4575    576642.72    4843.2773 
  207900    325.81709   0.81276012    4388.3211    6385.6326   -1997.3114      1079.64     4116.009    600.71707            0    -9114.473    4550.3539   -3229.5583    576642.72     3833.045 
  208000    327.30628   0.81276012    4320.1092    6414.8189   -2094.7097    1090.0442    4018.2335    602.32549            0   -9149.2987    4572.2534   -3228.2676    576642.72    3440.6626 
  208100    317.28992   0.81276012    4176.8761      6218.51   -2041.6339      1057.95    4119.4796    600.21858            0   -9160.9713    4564.9832   -3223.2939    576642.72    4032.0318 
  208200    323.29294   0.81276012    4284.2435    6336.1622   -2051.9187    1103.3205     4037.346    575.64339            0   -9140.2807     4594.365   -3222.3128    576642.72    4456.6552 
  208300    326.49788   0.81276012    4434.1168    6398.9752   -1964.8584    1132.4561    4038.3755    597.51891            0   -9092.0634    4581.6055   -3222.7511    576642.72      3375.34 
  208400    330.29855   0.81276012    4501.7803    6473.4639   -1971.6836    1152.3517    4086.7367    573.96805            0   -9137.0471    4577.0143   -3224.7071    576642.72     3586.864 
  208500    330.01349   0.81276012    4479.6081    6467.8771   -1988.2689    1098.1831     4131.152    588.40533            0   -9150.3549    4571.1355     -3226.79    576642.72    4076.2389 
  208600     323.8234   0.81276012    4377.2879    6346.5585   -1969.2706    1124.9773    4132.7602    617.49763            0   -9156.2694    4543.2015   -3231.4379    576642.72    3425.9359 
  208700    324.66588   0.81276012    4274.5993    6363.0701   -2088.4708    1075.6471    4059.4045    603.51017            0   -9141.9507    4549.5853   -3234.6673    576642.72    4391.3921 
  208800    325.04752   0.81276012    4336.9745    6370.5499   -2033.5754    1114.3377    4109.1947    572.86011            0   -9147.4147    4548.4647   -3231.0179    576642.72    3974.3869 
  208900    325.54391   0.81276012    4512.1159    6380.2786   -1868.1627    1125.6008    4128.1112    624.13304            0   -9080.7306      4567.15   -3232.4271    576642.72    5363.0637 
  209000    330.18164   0.81276012    4554.3184    6471.1726   -1916.8542    1148.6545    4144.1502    606.93717            0   -9153.8288    4569.5937    -3232.361    576642.72    3249.6308 
  209100    325.44969   0.81276012    4475.8868     6378.432   -1902.5452    1164.3807    4126.1527    577.49925            0     -9130.37    4590.3032   -3230.5111    576642.72    3551.5647 
  209200    328.21145   0.81276012     4345.243    6432.5591   -2087.3161     1096.717    4027.7713    579.51111            0   -9133.8192    4575.9855   -3233.4818    576642.72    4231.3156 
  209300    322.94762   0.81276012    4275.3061    6329.3943   -2054.0881    1100.3582    4054.9639    591.03168            0   -9112.6849    4545.5272   -3233.2842    576642.72    3762.7078 
  209400    327.41194   0.81276012    4487.4027    6416.8897    -1929.487    1052.4092    4197.1445    602.07564            0   -9122.9121    4569.1621   -3227.3664    576642.72    4205.2391 
  209500    331.35427   0.81276012    4609.4076    6494.1547   -1884.7471    1104.0002    4175.7685    592.39847            0   -9106.7712    4578.2115   -3228.3546    576642.72     4181.333 
  209600    327.19901   0.81276012    4515.5262    6412.7164   -1897.1903    1164.2886     4126.199    592.11173            0    -9132.456    4580.4909   -3227.8245    576642.72    4626.4948 
  209700    327.18771   0.81276012    4394.4301    6412.4951    -2018.065    1087.8552    4127.7874    578.16343            0   -9172.4338    4586.3972   -3225.8345    576642.72    4620.7493 
  209800    323.34451   0.81276012    4356.6565    6337.1729   -1980.5163    1077.8943    4162.6444    582.80274            0   -9153.5892     4577.612   -3227.8807    576642.72    3218.5873 
  209900    326.36993   0.81276012    4416.9396    6396.4674   -1979.5278    1161.2542    4060.8306    576.37641            0   -9125.3529    4581.2916   -3233.9277    576642.72    3125.3715 
  210000    328.69688   0.81276012    4582.7615     6442.073   -1859.3115    1138.8477     4187.623    591.02417            0   -9122.5407    4581.6747   -3235.9403    576642.72    3547.5103 
  210100    331.76362   0.81276012    4615.3175    6502.1774   -1886.8599     1132.332     4135.447    580.01713            0   -9087.0848    4583.3287   -3230.8999    576642.72    3092.2583 
  210200    326.99402   0.81276012    4538.5285    6408.6989   -1870.1704     1112.359    4172.2249     590.6907            0    -9093.802    4577.2499   -3228.8929    576642.72    3111.3763 
  210300    325.32722   0.81276012    4458.3572    6376.0317   -1917.6745    1118.8612    4100.1186     611.3759            0   -9096.3414    4576.7315   -3228.4203    576642.72    5063.3281 
  210400    328.11181   0.81276012    4440.1858    6430.6063   -1990.4205    1068.7757    4131.0549    576.75597            0   -9115.3425    4578.2137   -3229.8783    576642.72    4600.4929 
  210500    329.97304   0.81276012    4387.0555    6467.0842   -2080.0287    1069.5725    4073.1446    588.77825            0   -9161.8977    4580.0559   -3229.6822    576642.72     3891.404 
  210600     326.6179   0.81276012    4257.0588    6401.3275   -2144.2687     1028.939    4044.2819    570.61193            0   -9134.7294    4581.8145   -3235.1868    576642.72    4932.8047 
  210700    320.69508   0.81276012    4130.0915    6285.2471   -2155.1557    1029.0743    4047.9582    556.97046            0   -9126.6861     4570.175   -3232.6475    576642.72    3780.1131 
  210800    319.76183   0.81276012    4142.8018    6266.9564   -2124.1547    1068.6319     4056.791    596.15271            0   -9177.3943     4561.527   -3229.8629    576642.72    3338.9136 
  210900    326.65271   0.81276012    4354.9682    6402.0096   -2047.0414    1096.2985    4077.8704     584.9794            0   -9150.4977    4572.0592   -3227.7512    576642.72    4093.3886 
  211000    326.37528   0.81276012    4442.8402    6396.5723   -1953.7321    1075.9868    4167.7858    598.87909            0   -9127.6801    4556.7123   -3225.4161    576642.72    3674.7041 
  211100    332.16853   0.81276012    4499.9305    6510.1133   -2010.1828    1109.3872    4076.0963    611.46553            0   -9140.5271     4558.064   -3224.6687    576642.72    3857.2341 
  211200    332.15581   0.81276012    4436.6869    6509.8639    -2073.177    1067.7659    4080.5493    577.38149            0   -9145.5693    4574.3436    -3227.648    576642.72    4556.3969 
  211300    321.31448   0.81276012    4283.9962    6297.3865   -2013.3904    1096.0439    4178.2728    585.92345            0   -9211.6793    4562.9795   -3224.9308    576642.72    3853.7058 
  211400    321.18222   0.81276012    4287.1463    6294.7945   -2007.6482    1086.9906    4165.6819    606.39142            0    -9207.353    4566.4066   -3225.7658    576642.72    4322.6321 
  211500    322.78936   0.81276012    4383.0206    6326.2926    -1943.272    1128.2439    4127.1011    602.65819            0   -9171.8944    4597.9628   -3227.3437    576642.72    3672.5211 
  211600    330.00406   0.81276012     4421.604    6467.6922   -2046.0883    1073.4513    4113.3359    588.40887            0   -9178.9667     4584.298   -3226.6156    576642.72    4280.5224 
  211700    328.09639   0.81276012    4435.7107    6430.3041   -1994.5933    1146.3804    4123.7725    566.45031            0   -9181.5342    4576.2855   -3225.9478    576642.72    3526.4011 
  211800    324.52503   0.81276012    4411.0625    6360.3096   -1949.2472    1106.1445     4199.261    599.93117            0    -9181.843     4552.974   -3225.7148    576642.72    4062.5465 
  211900    323.27111   0.81276012    4303.2518    6335.7342   -2032.4825    1079.1037    4154.8458    571.38329            0   -9179.6226    4570.0081   -3228.2008    576642.72      4390.56 
  212000    323.38166   0.81276012    4182.4386    6337.9009   -2155.4622    1077.2019    4013.0348    573.37794            0   -9148.4748    4560.3196   -3230.9217    576642.72    3359.1714 
  212100    323.98652   0.81276012    4243.9168    6349.7555   -2105.8387    1076.9023    4071.7666     565.2367            0   -9148.3189    4558.0188   -3229.4442    576642.72    4165.0341 
  212200    324.27641   0.81276012    4403.3297     6355.437   -1952.1073     1101.372      4190.12    569.59588            0   -9152.2288     4566.913   -3227.8794    576642.72    4342.5303 
  212300    328.82965   0.81276012    4421.9188    6444.6751   -2022.7563     1124.873    4065.6594    561.72855            0   -9124.7657     4576.035   -3226.2865    576642.72    4171.2871 
  212400    329.10728   0.81276012    4381.7233    6450.1164   -2068.3931    1125.8068    4033.9849    585.55627            0   -9157.6122    4568.5988   -3224.7277    576642.72     3864.635 
  212500    327.32069   0.81276012    4316.1802    6415.1013   -2098.9211    1121.3699    4084.6948    553.19131            0     -9180.98    4546.8584   -3224.0554    576642.72    2875.7692 
  212600    319.45811   0.81276012    4200.6261    6261.0039   -2060.3779    1077.5191    4044.2899    577.17607            0     -9103.26    4564.7335   -3220.8365    576642.72    4384.9294 
  212700    321.89492   0.81276012     4215.529    6308.7626   -2093.2336    1104.0394     4048.948    565.04201            0   -9164.8774    4574.2132   -3220.5987    576642.72    4096.0061 
  212800    326.90759   0.81276012    4418.4111    6407.0049   -1988.5938    1077.9295     4179.098    565.91378            0    -9148.674    4556.1771   -3219.0381    576642.72    4217.4344 
  212900    332.62686   0.81276012      4450.72     6519.096    -2068.376    1134.3382    4006.9369    602.30693            0   -9147.8856    4554.1139   -3218.1864    576642.72    4377.4975 
  213000    326.50546   0.81276012     4376.015    6399.1236   -2023.1087    1115.0485    4083.1665    583.96445            0   -9135.1405    4552.2091   -3222.3567    576642.72    3873.0887 
  213100    323.41639   0.81276012    4265.6695    6338.5816   -2072.9121    1102.1772    4097.3583    546.80132            0   -9139.3749    4545.6542   -3225.5283    576642.72    2747.6733 
  213200    320.15508   0.81276012    4235.3323    6274.6637   -2039.3314    1072.8108    4007.2247    572.96693            0   -9013.0784    4546.5169   -3225.7723    576642.72    4706.8547 
  213300    330.10084   0.81276012    4468.4759    6469.5889    -2001.113     1108.817     4049.295    593.25682            0   -9099.2757    4567.8489   -3221.0551    576642.72    3857.1346 
  213400    329.05189   0.81276012    4545.8448    6449.0308    -1903.186    1099.9296    4167.7618    594.19676            0   -9100.8164    4559.8911   -3224.1488    576642.72    2923.8736 
  213500    328.67754   0.81276012     4493.362    6441.6939   -1948.3319    1150.6656    4124.4332    596.86272            0   -9148.5746    4555.9002   -3227.6191    576642.72    2718.4141 
  213600    328.61036   0.81276012    4374.0446    6440.3773   -2066.3327     1074.021    4004.2028    584.58322            0   -9073.2276    4568.6638   -3224.5758    576642.72    4336.8054 
  213700    322.28242   0.81276012    4286.6944     6316.357   -2029.6626    1100.9771    4068.9059    598.02062            0   -9134.0392    4559.7172   -3223.2443    576642.72    3448.8448 
  213800    323.58303   0.81276012    4331.5848    6341.8475   -2010.2627     1082.801    4119.9481    583.60881            0   -9151.8761    4580.5928   -3225.3372    576642.72    4676.7839 
  213900    331.70471   0.81276012    4533.8894    6501.0229   -1967.1335    1072.9127    4174.9894     587.7011            0   -9150.3297    4572.3778   -3224.7848    576642.72    5234.4843 
  214000    331.04781   0.81276012    4556.5305    6488.1485    -1931.618    1035.4953     4158.481    603.62109            0   -9089.4723    4583.0047   -3222.7478    576642.72    5366.4232 
  214100     331.7281   0.81276012    4483.3123    6501.4814   -2018.1691    1126.5615    4107.3939    591.93354            0   -9195.3554    4573.3912   -3222.0938    576642.72    4362.4427 
  214200    326.27993   0.81276012    4360.9276    6394.7036    -2033.776    1128.1959    4081.1755    557.14768            0   -9165.9908    4587.2624   -3221.5667    576642.72    4177.6631 
  214300    324.89638   0.81276012     4299.112    6367.5875   -2068.4756    1145.4905    4032.4852      579.111            0   -9162.7942    4564.7443   -3227.5122    576642.72     3538.999 
  214400    325.65136   0.81276012    4316.6962    6382.3843   -2065.6881     1111.364    4090.6016    586.18518            0   -9173.7087    4546.0901   -3226.2203    576642.72    3105.4186 
  214500    325.41983   0.81276012    4401.4354    6377.8467   -1976.4114    1122.8219    4101.2256    610.06355            0    -9149.911    4563.3143   -3223.9257    576642.72    3154.8496 
  214600    333.55785   0.81276012    4638.1509    6537.3423   -1899.1913    1139.5672    4113.1587    609.57626            0   -9112.7327    4576.8653    -3225.626    576642.72    4264.5712 
  214700    332.39072   0.81276012    4579.1903     6514.468   -1935.2777    1090.7978    4155.6699    618.00692            0   -9148.0833    4572.9049   -3224.5739    576642.72    4225.2302 
  214800    325.88493   0.81276012     4414.829    6386.9621   -1972.1331    1067.9127    4175.7911    588.70824            0   -9141.6904    4565.5604   -3228.4151    576642.72    3945.6997 
  214900     327.5537   0.81276012    4335.8317    6419.6679   -2083.8362    1036.3173    4074.8853    539.53089            0   -9082.9285    4576.2531   -3227.8943    576642.72    4492.2926 
  215000    324.02525   0.81276012    4353.1901    6350.5145   -1997.3244    1120.5914    4114.9347    571.58252            0   -9155.6789    4584.2376   -3232.9918    576642.72    4155.4839 
  215100    323.78589   0.81276012    4497.6998    6345.8234   -1848.1236    1149.6756    4206.6122    572.33869            0   -9122.6761    4577.8233   -3231.8973    576642.72    3861.9536 
  215200    327.59114   0.81276012    4575.4972    6420.4017   -1844.9045    1155.9709    4182.3692    602.04775            0   -9097.6634    4542.7833   -3230.4122    576642.72    3352.3144 
  215300    329.12015   0.81276012    4443.9411    6450.3687   -2006.4275    1111.1603    4114.2942      581.576            0   -9147.9693    4561.0443    -3226.533    576642.72    4414.2727 
  215400    324.95223   0.81276012    4347.1543    6368.6823    -2021.528    1074.9787    4144.3396    602.98932            0   -9167.8565    4551.7081   -3227.6873    576642.72    4072.2167 
  215500    326.78324   0.81276012     4314.805    6404.5679   -2089.7629    1138.7995    4055.2902     568.6691            0   -9159.2824    4538.1683   -3231.4076    576642.72    3640.9459 
  215600    325.98661   0.81276012    4322.1005    6388.9549   -2066.8544    1079.8882    4133.8331    573.62778            0   -9195.5786     4569.354   -3227.9789    576642.72    3551.1596 
  215700    327.11629   0.81276012    4399.0027    6411.0953   -2012.0926    1117.5292    4078.7145    592.25615            0   -9148.9136    4576.0946   -3227.7735    576642.72    3858.8685 
