LAMMPS (31 Mar 2017)
  using 1 OpenMP thread(s) per MPI task
Reading data file ...
  orthogonal box = (0 0 0) to (81.6 70.667 100)
  4 by 3 by 1 MPI processor grid
  reading atoms ...
  7856 atoms
  scanning bonds ...
  1 = max bonds/atom
  scanning angles ...
  6 = max angles/atom
  scanning dihedrals ...
  9 = max dihedrals/atom
  reading bonds ...
  6400 bonds
  reading angles ...
  11520 angles
  reading dihedrals ...
  11520 dihedrals
Finding 1-2 1-3 1-4 neighbors ...
  special bond factors lj:   0          0          0.5       
  special bond factors coul: 0          0          0.5       
  4 = max # of 1-2 neighbors
  6 = max # of 1-3 neighbors
  12 = max # of 1-4 neighbors
  14 = max # of special neighbors
1200 atoms in group gold
256 atoms in group thiol
6656 atoms in group dynamic
Ewald initialization ...
WARNING: System is not charge neutral, net charge = 1.024e-05 (../kspace.cpp:302)
WARNING: Using 12-bit tables for long-range coulomb (../kspace.cpp:321)
  G vector (1/distance) = 0.130214
  estimated absolute RMS force accuracy = 0.0385551
  estimated relative force accuracy = 0.000116108
  KSpace vectors: actual max1d max3d = 472 7 1687
                  kxmax kymax kzmax  = 6 5 7
Neighbor list info ...
  update every 1 steps, delay 0 steps, check yes
  max neighbors/atom: 30000, page size: 300000
  master list distance cutoff = 22
  ghost atom cutoff = 22
  binsize = 11, bins = 8 7 10
  3 neighbor lists, perpetual/occasional/extra = 3 0 0
  (1) pair lj/cut/coul/long, perpetual, skip from (3)
      attributes: half, newton on
      pair build: skip
      stencil: none
      bin: none
  (2) pair morse, perpetual, skip from (3)
      attributes: half, newton on
      pair build: skip
      stencil: none
      bin: none
  (3) neighbor class addition, perpetual
      attributes: half, newton on
      pair build: half/bin/newton
      stencil: half/bin/3d/newton
      bin: standard
Setting up cg style minimization ...
  Unit style    : real
Per MPI rank memory allocation (min/avg/max) = 31.97 | 31.98 | 31.98 Mbytes
Step Temp Press KinEng PotEng TotEng Density 
       0            0 1.5334966e+13            0 3.2240775e+13 3.2240775e+13   0.81276012 
     100            0    41467.343            0    127905.77    127905.77   0.81276012 
Loop time of 1.28896 on 12 procs for 100 steps with 7856 atoms

98.8% CPU use with 12 MPI tasks x 1 OpenMP threads

Minimization stats:
  Stopping criterion = max iterations
  Energy initial, next-to-last, final = 
     3.22407745877e+13      129240.937812       127905.76572
  Force two-norm initial, final = 1.39169e+15 1391.14
  Force max component initial, final = 1.06972e+15 307.9
  Final line search alpha, max atom move = 0.000717541 0.220931
  Iterations, force evaluations = 100 109

MPI task timing breakdown:
Section |  min time  |  avg time  |  max time  |%varavg| %total
---------------------------------------------------------------
Pair    | 0.83678    | 0.92412    | 1.0079     |   5.1 | 71.70
Bond    | 0.031458   | 0.035877   | 0.039636   |   1.2 |  2.78
Kspace  | 0.20794    | 0.2898     | 0.37016    |   8.6 | 22.48
Neigh   | 0          | 0          | 0          |   0.0 |  0.00
Comm    | 0.024018   | 0.030773   | 0.041953   |   3.3 |  2.39
Output  | 3.0994e-05 | 3.7909e-05 | 0.00011396 |   0.0 |  0.00
Modify  | 0.0001595  | 0.00017367 | 0.00018406 |   0.0 |  0.01
Other   |            | 0.008181   |            |       |  0.63

Nlocal:    654.667 ave 684 max 618 min
Histogram: 2 2 0 0 0 1 3 0 1 3
Nghost:    5260.08 ave 5317 max 5195 min
Histogram: 1 3 0 0 1 1 2 1 0 3
Neighs:    650891 ave 687441 max 599269 min
Histogram: 1 1 2 0 0 1 0 4 0 3

Total # of neighbors = 7810694
Ave neighs/atom = 994.233
Ave special neighs/atom = 7.49491
Neighbor list builds = 0
Dangerous builds = 0
Ewald initialization ...
WARNING: Using 12-bit tables for long-range coulomb (../kspace.cpp:321)
  G vector (1/distance) = 0.130214
  estimated absolute RMS force accuracy = 0.0385551
  estimated relative force accuracy = 0.000116108
  KSpace vectors: actual max1d max3d = 472 7 1687
                  kxmax kymax kzmax  = 6 5 7
Setting up Verlet run ...
  Unit style    : real
  Current step  : 100
  Time step     : 1
Per MPI rank memory allocation (min/avg/max) = 30.86 | 30.87 | 30.87 Mbytes
Step Temp Press KinEng PotEng TotEng Density 
     100            0    41467.343            0    127905.77    127905.77   0.81276012 
     200     183.6586    83950.173    4300.2308    497202.62    501502.85   0.81276012 
     300    141.66843    48432.309    3317.0619    214846.47    218163.53   0.81276012 
     400    113.81943     39532.73     2664.998    119549.82    122214.82   0.81276012 
     500    89.580295    33137.463    2097.4566    86341.276    88438.733   0.81276012 
     600    69.530415    30052.096    1628.0034    70708.289    72336.292   0.81276012 
     700    54.036567    27837.124    1265.2264    60153.139    61418.366   0.81276012 
     800    42.516521    26081.156      995.493    53006.575    54002.068   0.81276012 
     900    37.804509    24656.868     885.1647    47489.357    48374.522   0.81276012 
    1000    30.573463    23478.887    715.85509    43332.186    44048.041   0.81276012 
    1100    25.676958    22546.328    601.20704     39862.79    40463.997   0.81276012 
    1200    21.263837    21675.949    497.87708    37193.132     37691.01   0.81276012 
    1300    16.687168    21057.716    390.71775    35130.364    35521.082   0.81276012 
    1400     12.70544    20441.987     297.4885    33534.544    33832.032   0.81276012 
    1500     11.89594    19947.892    278.53466    32128.732    32407.266   0.81276012 
    1600    11.125908    19510.501    260.50493    30900.612    31161.117   0.81276012 
    1700    11.168299    19067.773    261.49749    29619.709    29881.207   0.81276012 
    1800    10.791021    18649.268     252.6638    28393.836      28646.5   0.81276012 
    1900    10.504716    18247.349    245.96018    27306.715    27552.675   0.81276012 
    2000    10.297015    17887.637    241.09701    26281.822    26522.919   0.81276012 
    2100    9.8365118    17488.922    230.31467    25330.072    25560.387   0.81276012 
    2200     9.717895    17200.971    227.53735    24469.129    24696.667   0.81276012 
    2300    9.4269144    16894.629    220.72425    23647.729    23868.454   0.81276012 
    2400    9.5300935    16534.712    223.14011        22893     23116.14   0.81276012 
    2500    9.5656094    16275.309    223.97169      22194.4    22418.371   0.81276012 
    2600    9.1832607    15964.933    215.01928    21540.981        21756   0.81276012 
    2700    8.8914505    15746.024    208.18676    20963.379    21171.566   0.81276012 
    2800    9.5034481    15484.089    222.51623    20340.879    20563.396   0.81276012 
    2900    9.6136744    15256.838     225.0971    19759.198    19984.295   0.81276012 
    3000    10.195412    15025.166    238.71805    19138.088    19376.806   0.81276012 
    3100    10.342371    14785.116    242.15899    18554.066    18796.225   0.81276012 
    3200    9.8633433    14558.558    230.94291    18042.426    18273.369   0.81276012 
    3300    9.8702422    14351.517    231.10445     17579.86    17810.965   0.81276012 
    3400    10.030597    14134.427    234.85903     17127.42    17362.279   0.81276012 
    3500    10.494903    13971.857    245.73041    16608.189     16853.92   0.81276012 
    3600    10.472937    13777.776    245.21611    16160.454     16405.67   0.81276012 
    3700    11.237699    13568.216    263.12244    15675.263    15938.385   0.81276012 
    3800    11.896307    13341.863    278.54326    15162.873    15441.416   0.81276012 
    3900    11.755541    13154.108    275.24734    14656.259    14931.506   0.81276012 
    4000    11.856087    12922.813    277.60154    14182.839    14460.441   0.81276012 
    4100    12.511928    12719.766    292.95757    13720.585    14013.543   0.81276012 
    4200    12.365013    12472.589    289.51767    13268.636    13558.154   0.81276012 
    4300    11.781773     12290.74    275.86154    12872.694    13148.555   0.81276012 
    4400    11.412025    12119.292    267.20416    12550.362    12817.566   0.81276012 
    4500    11.576707    11958.596    271.06007    12234.513    12505.573   0.81276012 
    4600    11.513939    11807.288    269.59039    11917.407    12186.998   0.81276012 
    4700    11.824665    11682.338    276.86583    11623.054    11899.919   0.81276012 
    4800    12.061584    11539.155    282.41311    11317.055    11599.469   0.81276012 
    4900    11.751803    11430.205    275.15981    11018.307    11293.467   0.81276012 
    5000    11.863798    11332.015     277.7821    10734.881    11012.663   0.81276012 
    5100    11.913979    11189.472    278.95704    10459.069    10738.027   0.81276012 
    5200    12.095517    11088.745    283.20761    10202.483    10485.691   0.81276012 
    5300    12.209407     10954.17    285.87426    9959.8293    10245.704   0.81276012 
    5400    12.464447    10825.242    291.84584    9722.1045     10013.95   0.81276012 
    5500    12.614692    10658.583    295.36371    9473.2588    9768.6225   0.81276012 
    5600    12.579014    10541.811    294.52834    9248.3478    9542.8762   0.81276012 
    5700    12.567905    10425.299    294.26824     9029.832    9324.1002   0.81276012 
    5800    12.490582    10279.408    292.45778    8824.6098    9117.0676   0.81276012 
    5900    12.779609     10183.32    299.22512    8598.6926    8897.9177   0.81276012 
    6000    12.947106    10044.595    303.14694    8373.4772    8676.6242   0.81276012 
    6100    13.094568    9920.5777    306.59966    8166.6051    8473.2048   0.81276012 
    6200    13.323938     9824.959    311.97019    7939.5975    8251.5677   0.81276012 
    6300    12.942783    9738.8954    303.04573    7774.3985    8077.4442   0.81276012 
    6400    13.129289    9608.8199    307.41263    7596.8387    7904.2513   0.81276012 
    6500    13.029102    9564.9414    305.06682    7447.2396    7752.3064   0.81276012 
    6600     13.03529    9486.4689     305.2117    7304.6179    7609.8296   0.81276012 
    6700    13.015896     9372.037    304.75762    7165.7291    7470.4868   0.81276012 
    6800     13.53306    9308.3912    316.86662    7018.6457    7335.5123   0.81276012 
    6900    13.385928    9198.4033    313.42164    6888.7155    7202.1372   0.81276012 
    7000    13.417358    9128.8152    314.15756     6770.226    7084.3835   0.81276012 
    7100    13.422994    9069.8911    314.28952    6658.6912    6972.9808   0.81276012 
    7200    13.540838    8998.2832    317.04874    6547.7908    6864.8395   0.81276012 
    7300    13.725367    8936.2815    321.36935    6432.4784    6753.8478   0.81276012 
    7400    14.123745    8867.9458    330.69709    6295.5236    6626.2207   0.81276012 
    7500    14.317312    8782.9862     335.2293    6169.9615    6505.1908   0.81276012 
    7600    14.262763    8707.2559    333.95209    6046.2604    6380.2125   0.81276012 
    7700    14.333948    8630.0377    335.61882      5926.36    6261.9788   0.81276012 
    7800    14.557788    8586.8894    340.85988    5796.5645    6137.4244   0.81276012 
    7900    14.453214      8543.71    338.41134    5688.9324    6027.3438   0.81276012 
    8000    14.565558      8441.29     341.0418    5561.1236    5902.1654   0.81276012 
    8100    14.948726    8358.4449     350.0134    5446.5682    5796.5816   0.81276012 
    8200    14.781757    8333.4528    346.10394    5335.4164    5681.5204   0.81276012 
    8300    15.345041     8243.843    359.29284    5204.7568    5564.0497   0.81276012 
    8400    15.408575    8140.4255    360.78042    5046.0394    5406.8198   0.81276012 
    8500    15.340349    8083.8099    359.18297    4926.4489    5285.6319   0.81276012 
    8600    15.449265    8025.2113    361.73315    4808.1464    5169.8796   0.81276012 
    8700    15.734441    7961.0144    368.41034    4689.7547    5058.1651   0.81276012 
    8800    15.384591    7934.4929    360.21886    4606.7464    4966.9652   0.81276012 
    8900    15.190719    7840.9967    355.67948    4513.6901    4869.3696   0.81276012 
    9000    15.669765    7778.5321      366.896    4420.8079    4787.7039   0.81276012 
    9100    15.634998    7719.3616    366.08195    4344.5055    4710.5875   0.81276012 
    9200    15.800537    7685.2372    369.95793    4250.5344    4620.4923   0.81276012 
    9300    15.852705    7607.4404    371.17941    4163.3264    4534.5058   0.81276012 
    9400    16.031965    7574.4172    375.37664    4073.2554     4448.632   0.81276012 
    9500     16.05971    7507.7462    376.02627    3984.6277    4360.6539   0.81276012 
    9600    15.891373    7458.5655    372.08479    3890.8553    4262.9401   0.81276012 
    9700    16.161742    7430.1472    378.41528    3780.1649    4158.5801   0.81276012 
    9800    16.399543    7351.2654    383.98322    3687.9235    4071.9067   0.81276012 
    9900    16.469941    7294.6257    385.63154    3609.0265     3994.658   0.81276012 
   10000    16.371538    7269.9058     383.3275    3529.4958    3912.8233   0.81276012 
   10100    16.254322    7226.8634    380.58296    3458.6552    3839.2382   0.81276012 
   10200    16.334967    7182.9063    382.47122    3376.0431    3758.5144   0.81276012 
   10300    16.724629    7142.5662    391.59487    3283.3519    3674.9467   0.81276012 
   10400    16.792956    7062.5347     393.1947    3204.0595    3597.2542   0.81276012 
   10500    16.793556    7003.0654    393.20873    3118.0233     3511.232   0.81276012 
   10600    16.590507    7017.4407    388.45449    3058.4769    3446.9313   0.81276012 
   10700     17.07011    6931.9722    399.68404    2976.9387    3376.6228   0.81276012 
   10800    16.954782     6914.544    396.98373    2898.5874    3295.5711   0.81276012 
   10900    17.247242    6858.2051    403.83146    2809.4428    3213.2742   0.81276012 
   11000    17.618385    6823.4886     412.5215    2729.0946    3141.6161   0.81276012 
   11100    17.546892    6764.5403    410.84755     2645.547    3056.3945   0.81276012 
   11200    17.472876    6711.2614    409.11452    2556.9219    2966.0364   0.81276012 
   11300    17.348919    6679.4338    406.21215    2494.2838     2900.496   0.81276012 
   11400    17.643723    6655.5667    413.11478    2422.6518    2835.7666   0.81276012 
   11500    17.595599    6606.3492    411.98799    2333.4392    2745.4272   0.81276012 
   11600    17.261794    6517.5833    404.17217    2276.6185    2680.7906   0.81276012 
   11700    17.795376    6506.1918    416.66561    2214.7244      2631.39   0.81276012 
   11800    17.948862    6488.0197    420.25936    2127.9215    2548.1809   0.81276012 
   11900    18.223075    6440.9607    426.67988    2052.9074    2479.5873   0.81276012 
   12000    18.239431    6419.0631    427.06283    1981.2774    2408.3402   0.81276012 
   12100    18.004298    6320.5959    421.55736     1913.731    2335.2884   0.81276012 
   12200     18.39032    6271.8449    430.59578    1849.6146    2280.2104   0.81276012 
   12300    18.640757    6246.1695    436.45959    1780.4687    2216.9283   0.81276012 
   12400    18.402422     6220.198    430.87915    1720.8504    2151.7296   0.81276012 
   12500    18.412826    6181.0482    431.12275    1658.6492     2089.772   0.81276012 
   12600    18.566647    6157.1178    434.72437    1598.7374    2033.4617   0.81276012 
   12700    18.437596    6102.9494    431.70271    1544.1243     1975.827   0.81276012 
   12800    18.613164    6108.1512    435.81353    1502.3864    1938.1999   0.81276012 
   12900    18.326701    6063.7458    429.10619    1456.9754    1886.0816   0.81276012 
   13000    18.592543    6005.4115    435.33069    1407.4501    1842.7808   0.81276012 
   13100    18.649474    5994.8306     436.6637     1356.688    1793.3517   0.81276012 
   13200    18.705023    6000.4703    437.96432    1299.0232    1736.9875   0.81276012 
   13300    18.991928    5948.2929    444.68199    1254.7167    1699.3987   0.81276012 
   13400    19.185561    5920.0195    449.21578    1199.1502     1648.366   0.81276012 
   13500    19.118663     5890.021     447.6494    1149.8866     1597.536   0.81276012 
   13600    19.150252     5848.016    448.38904     1086.547     1534.936   0.81276012 
   13700    18.885635    5810.4921    442.19323    1030.6272    1472.8205   0.81276012 
   13800    19.238554    5747.3818    450.45656    979.15858    1429.6151   0.81276012 
   13900    19.147825    5724.0317    448.33222    929.87892    1378.2111   0.81276012 
   14000    19.421379    5729.0918    454.73727    883.85002    1338.5873   0.81276012 
   14100    19.451691    5643.6792      455.447    848.00865    1303.4557   0.81276012 
   14200    19.242534    5670.0916    450.54976    800.67976    1251.2295   0.81276012 
   14300    19.865961    5624.9871    465.14683     754.1991    1219.3459   0.81276012 
   14400    19.403044    5621.1461    454.30796    716.15392    1170.4619   0.81276012 
   14500    19.543906    5544.8447    457.60615     671.5485    1129.1546   0.81276012 
   14600    19.885987    5546.5587    465.61573    636.13698    1101.7527   0.81276012 
   14700    19.568293    5524.6779    458.17715    595.63694    1053.8141   0.81276012 
   14800    19.794075    5497.2197    463.46367    555.57952    1019.0432   0.81276012 
   14900    20.052713    5428.7456    469.51949    517.58468    987.10417   0.81276012 
   15000    19.709903    5428.2566    461.49286    479.82453    941.31739   0.81276012 
   15100    20.284393    5386.5833    474.94411    425.12613    900.07024   0.81276012 
   15200    19.967035    5405.8878    467.51341    406.41619     873.9296   0.81276012 
   15300    20.017911    5387.0736    468.70462    362.87887    831.58349   0.81276012 
   15400    20.202698    5346.5481    473.03128    312.42761     785.4589   0.81276012 
   15500    20.463643    5308.8613    479.14111    263.10862    742.24973   0.81276012 
   15600    20.492208     5298.249    479.80995    228.12888    707.93882   0.81276012 
   15700    20.637058    5271.5667     483.2015    181.25085    664.45235   0.81276012 
   15800    20.626422    5237.7966    482.95248    146.44955    629.40202   0.81276012 
   15900    20.664196    5228.4291    483.83693    104.81119    588.64812   0.81276012 
   16000    20.592269    5163.0473     482.1528    65.930012    548.08281   0.81276012 
   16100    20.973061    5152.4428    491.06877    29.625539    520.69431   0.81276012 
   16200    20.594384     5151.806    482.20232   -7.9164353    474.28588   0.81276012 
   16300    20.764669    5093.7397    486.18941   -31.209798    454.97962   0.81276012 
   16400    20.788556    5107.9675    486.74872   -85.137602    401.61112   0.81276012 
   16500    21.226332     5098.399    496.99892    -125.7932    371.20572   0.81276012 
   16600    21.094707     5026.923    493.91702   -155.61702    338.29999   0.81276012 
   16700    20.847806    5000.4041    488.13602   -188.12917    300.00685   0.81276012 
   16800    21.142753    5037.6882    495.04197   -217.61449    277.42748   0.81276012 
   16900    20.735638    4990.7943    485.50967   -247.22707     238.2826   0.81276012 
   17000    21.062687    4959.9904    493.16729   -270.43614    222.73115   0.81276012 
   17100     21.28452    4943.7173    498.36135    -296.8881    201.47326   0.81276012 
   17200    21.394322    4891.5259    500.93228    -326.8697    174.06258   0.81276012 
   17300    21.504627     4891.329    503.51499   -365.24466    138.27033   0.81276012 
   17400    21.811258    4881.5379    510.69454   -400.21158    110.48296   0.81276012 
   17500    21.988671    4877.2065    514.84853   -440.46067    74.387867   0.81276012 
   17600    21.864504    4854.1536    511.94124   -482.67359    29.267654   0.81276012 
   17700    21.895415    4823.9876    512.66501   -520.39738   -7.7323627   0.81276012 
   17800    21.998907    4783.6871    515.08819   -567.55937   -52.471182   0.81276012 
   17900    21.694295    4776.3502    507.95594   -613.93845   -105.98251   0.81276012 
   18000    22.009973    4699.5286     515.3473   -689.43963   -174.09233   0.81276012 
   18100    22.061137    4682.0584    516.54527    -743.2298   -226.68454   0.81276012 
   18200    22.142027    4657.2721    518.43925   -780.73904   -262.29979   0.81276012 
   18300    22.397012    4634.2106    524.40953   -823.51579   -299.10625   0.81276012 
   18400    21.774072    4611.3761    509.82384   -848.45147   -338.62764   0.81276012 
   18500    22.042852    4550.2999    516.11713   -895.36197   -379.24484   0.81276012 
   18600    22.070956    4621.2775    516.77517   -919.19516   -402.41999   0.81276012 
   18700    22.508791    4584.1989    527.02676   -949.69664   -422.66988   0.81276012 
   18800    22.364009    4545.7987    523.63679    -961.3697   -437.73291   0.81276012 
   18900    22.711881    4545.5968    531.78196   -989.48082   -457.69887   0.81276012 
   19000    22.624511    4494.6363    529.73626   -1033.8109   -504.07465   0.81276012 
   19100    22.326023    4486.2207    522.74736   -1063.7168   -540.96942   0.81276012 
   19200    22.452244    4473.2094    525.70274   -1077.9188   -552.21605   0.81276012 
   19300    22.908404     4441.889     536.3834   -1115.0596   -578.67623   0.81276012 
   19400    22.632001    4420.7257    529.91161   -1153.7511    -623.8395   0.81276012 
   19500    22.950641    4424.5405    537.37234   -1192.7913   -655.41899   0.81276012 
   19600    22.700381    4386.9678    531.51268   -1216.5321   -685.01942   0.81276012 
   19700    22.841029    4378.6424    534.80585    -1234.232   -699.42618   0.81276012 
   19800    23.062549    4344.0512    539.99258   -1259.5001   -719.50747   0.81276012 
   19900    23.111321    4294.2337    541.13455   -1281.6776   -740.54305   0.81276012 
   20000    22.918249    4322.3312    536.61392   -1294.7213   -758.10735   0.81276012 
   20100    23.031956    4317.4837    539.27628   -1320.0081   -780.73183   0.81276012 
   20200    23.108544    4289.6855    541.06952   -1341.6542   -800.58464   0.81276012 
   20300    22.716828    4264.8646    531.89778   -1375.2879   -843.39009   0.81276012 
   20400    23.007203    4267.9689    538.69669   -1394.4207   -855.72396   0.81276012 
   20500    23.235577     4258.457     544.0439   -1403.6655   -859.62161   0.81276012 
   20600    23.647425    4234.8941    553.68702   -1439.7211   -886.03404   0.81276012 
   20700    23.504335    4257.0794    550.33667   -1443.3847   -893.04803   0.81276012 
   20800     23.39466    4205.4204    547.76872   -1467.3574   -919.58871   0.81276012 
   20900    23.318426    4212.9878    545.98375   -1513.8858   -967.90203   0.81276012 
   21000    23.048593     4178.351    539.66583   -1527.2816   -987.61574   0.81276012 
   21100    23.602579    4140.2564    552.63698    -1557.214   -1004.5771   0.81276012 
   21200    23.764087    4132.0061    556.41857   -1593.8922   -1037.4736   0.81276012 
   21300    23.538464    4084.9454    551.13578    -1625.335   -1074.1993   0.81276012 
   21400    23.907107    4090.0265     559.7673   -1649.2933    -1089.526   0.81276012 
   21500     23.89638    4054.4217    559.51612   -1687.8301    -1128.314   0.81276012 
   21600    23.842634    4091.9582    558.25771    -1712.948   -1154.6903   0.81276012 
   21700    24.252473    4036.5521    567.85377   -1723.1634   -1155.3096   0.81276012 
   21800    23.668228    4027.7514     554.1741   -1740.5808   -1186.4067   0.81276012 
   21900    24.354802    4030.2094    570.24973   -1768.2425   -1197.9928   0.81276012 
   22000    23.898854    3990.9363    559.57405   -1779.4645   -1219.8904   0.81276012 
   22100    24.493468    3974.5763     573.4965   -1825.9373   -1252.4408   0.81276012 
   22200     24.36853    3949.3484    570.57117   -1835.9679   -1265.3968   0.81276012 
   22300    24.076643    3897.3109    563.73685   -1858.4951   -1294.7583   0.81276012 
   22400    24.135338    3904.0813    565.11114   -1883.8192    -1318.708   0.81276012 
   22500    24.449584    3922.4619    572.46899   -1900.1824   -1327.7134   0.81276012 
   22600    23.862356    3914.4495    558.71949    -1925.586   -1366.8665   0.81276012 
   22700    24.269897    3870.0519    568.26175   -1945.3288    -1377.067   0.81276012 
   22800    24.074674    3869.0045    563.69075   -1959.1525   -1395.4618   0.81276012 
   22900    24.261233    3861.4076    568.05889   -1989.1763   -1421.1174   0.81276012 
   23000    24.607024     3848.445    576.15532   -1997.6111   -1421.4558   0.81276012 
   23100    24.850121    3849.6028    581.84727    -2013.812   -1431.9648   0.81276012 
   23200    24.914417     3836.929    583.35271   -2030.3386   -1446.9859   0.81276012 
   23300     25.27739    3790.2321    591.85146    -2052.396   -1460.5445   0.81276012 
   23400    25.549139    3771.8687    598.21426   -2071.8246   -1473.6104   0.81276012 
   23500    24.675191    3816.6983    577.75142   -2075.3784   -1497.6269   0.81276012 
   23600    24.665167    3829.5117     577.5167    -2101.875   -1524.3583   0.81276012 
   23700    24.983849    3797.4791    584.97841   -2127.7202   -1542.7418   0.81276012 
   23800    24.837979    3747.7131    581.56298   -2133.2129     -1551.65   0.81276012 
   23900    24.925982    3741.1225    583.62349   -2148.6723   -1565.0488   0.81276012 
   24000    24.926092    3685.4091    583.62607   -2175.6136   -1591.9875   0.81276012 
   24100     24.95774    3741.6231    584.36708   -2180.0416   -1595.6745   0.81276012 
   24200    24.847341    3709.9374    581.78218     -2210.51   -1628.7278   0.81276012 
   24300    25.314171    3680.7248    592.71266   -2226.7859   -1634.0733   0.81276012 
   24400      25.2272    3677.4448    590.67628   -2239.3174   -1648.6412   0.81276012 
   24500    25.179885    3664.9961    589.56844   -2258.4696   -1668.9011   0.81276012 
   24600    24.970165    3683.2801    584.65801   -2276.2166   -1691.5586   0.81276012 
   24700    25.154118    3597.5113    588.96513   -2287.6624   -1698.6972   0.81276012 
   24800    25.142358    3665.6958    588.68978   -2304.2034   -1715.5136   0.81276012 
   24900    24.876501    3663.2748    582.46493   -2303.3418   -1720.8769   0.81276012 
   25000    25.629352    3551.5309    600.09239   -2325.7324     -1725.64   0.81276012 
   25100    25.178182    3567.1442    589.52858   -2347.0942   -1757.5656   0.81276012 
   25200    25.710946    3624.1105    602.00284   -2370.1511   -1768.1483   0.81276012 
   25300    25.263745    3624.0986    591.53197   -2378.3894   -1786.8574   0.81276012 
   25400    25.891443    3575.7633    606.22905   -2399.3116   -1793.0825   0.81276012 
   25500    25.771772    3558.5762    603.42704   -2416.5763   -1813.1493   0.81276012 
   25600    26.403993    3584.2018    618.23003    -2437.643    -1819.413   0.81276012 
   25700    26.199213    3532.5419    613.43525    -2444.604   -1831.1688   0.81276012 
   25800     26.30698    3535.4352    615.95854   -2462.4348   -1846.4763   0.81276012 
   25900    25.801534    3530.6023     604.1239    -2479.793   -1875.6691   0.81276012 
   26000    26.231634    3456.1074    614.19437   -2494.7149   -1880.5205   0.81276012 
   26100    25.937091    3437.6683    607.29787   -2516.1919   -1908.8941   0.81276012 
   26200    26.232339    3459.2421    614.21089   -2515.5145   -1901.3037   0.81276012 
   26300    25.801237    3486.9965    604.11695   -2522.3112   -1918.1943   0.81276012 
   26400    26.231113    3448.4046    614.18217   -2535.5875   -1921.4053   0.81276012 
   26500    26.666909    3473.3795    624.38602   -2539.9331    -1915.547   0.81276012 
   26600     26.35552    3441.7124    617.09508   -2565.9587   -1948.8637   0.81276012 
   26700    25.734735    3473.8759    602.55985   -2587.5553   -1984.9955   0.81276012 
   26800    26.141594    3381.7023    612.08615   -2591.3761     -1979.29   0.81276012 
   26900    25.929416    3410.7112    607.11818   -2599.9485   -1992.8303   0.81276012 
   27000    26.298921    3416.5467    615.76985   -2620.3719    -2004.602   0.81276012 
   27100    26.492258    3392.1722    620.29669   -2616.1615   -1995.8648   0.81276012 
   27200    26.955788    3417.5342     631.1499   -2628.0817   -1996.9318   0.81276012 
   27300    26.535599    3395.0883     621.3115   -2646.9078   -2025.5963   0.81276012 
   27400    26.771323    3361.0259    626.83079   -2644.0637   -2017.2329   0.81276012 
   27500     27.13729    3369.2375    635.39964   -2674.2523   -2038.8527   0.81276012 
   27600    26.649885    3365.9143    623.98741    -2673.567   -2049.5796   0.81276012 
   27700    27.234908     3312.872    637.68529   -2689.8007   -2052.1154   0.81276012 
   27800    27.079262    3335.9963    634.04096   -2702.5142   -2068.4732   0.81276012 
   27900    27.369581    3309.5585    640.83858   -2711.5514   -2070.7128   0.81276012 
   28000    27.021874    3285.8962    632.69727   -2718.3457   -2085.6485   0.81276012 
   28100    27.240748    3323.9037    637.82204    -2735.976   -2098.1539   0.81276012 
   28200    26.691412    3272.2546    624.95975   -2750.3444   -2125.3847   0.81276012 
   28300    26.656419    3307.5506    624.14042   -2761.2046   -2137.0642   0.81276012 
   28400    26.940869    3295.2783    630.80058   -2765.6317   -2134.8311   0.81276012 
   28500    26.775171    3237.6491    626.92089   -2782.2161   -2155.2952   0.81276012 
   28600    27.213688    3285.2533    637.18845   -2781.3535   -2144.1651   0.81276012 
   28700    27.203361    3254.0196    636.94664   -2803.0139   -2166.0672   0.81276012 
   28800    27.273582    3248.7001    638.59081   -2811.0083   -2172.4175   0.81276012 
   28900    27.647904    3244.3088    647.35529   -2828.0183    -2180.663   0.81276012 
   29000    27.610803    3242.8283     646.4866   -2831.2737   -2184.7871   0.81276012 
   29100    27.768279    3184.8431    650.17379    -2819.276   -2169.1022   0.81276012 
   29200    27.903233    3207.7814    653.33364   -2857.6042   -2204.2705   0.81276012 
   29300    27.688787     3244.561    648.31254   -2856.1262   -2207.8137   0.81276012 
   29400     28.25357    3200.7045    661.53651   -2875.2284   -2213.6919   0.81276012 
   29500    27.538427    3180.5247    644.79196   -2888.9866   -2244.1947   0.81276012 
   29600    27.891119    3190.1935       653.05   -2906.9248   -2253.8748   0.81276012 
   29700    28.153796    3176.3578    659.20038   -2912.3714    -2253.171   0.81276012 
   29800    27.628104    3160.7454    646.89169    -2918.916   -2272.0243   0.81276012 
   29900    28.201407    3181.9766    660.31517    -2933.736   -2273.4209   0.81276012 
   30000    28.348483    3182.4044    663.75883   -2931.5485   -2267.7897   0.81276012 
   30100     27.85558    3218.6579    652.21787   -2951.1672   -2298.9493   0.81276012 
   30200    28.274775    3130.8396    662.03301   -2962.6265   -2300.5935   0.81276012 
   30300    28.221344      3119.28    660.78196   -2959.5645   -2298.7825   0.81276012 
   30400    28.346502    3168.8596    663.71245    -2993.408   -2329.6956   0.81276012 
   30500    27.784898    3122.8215    650.56291   -3001.2943   -2350.7314   0.81276012 
   30600    28.537522    3111.7809    668.18505    -3018.904    -2350.719   0.81276012 
   30700    28.270029     3048.766    661.92189   -3021.0858   -2359.1639   0.81276012 
   30800    28.686331    3077.4716     671.6693   -3021.9957   -2350.3264   0.81276012 
   30900    28.436526    3056.6065     665.8203    -3031.798   -2365.9777   0.81276012 
   31000    28.792242    3110.0488    674.14912   -3047.9927   -2373.8436   0.81276012 
   31100    28.599008    3051.7799     669.6247   -3048.7779   -2379.1532   0.81276012 
   31200    28.422581    3084.4827    665.49379   -3067.2619   -2401.7681   0.81276012 
   31300    28.394154    3089.1998    664.82818   -3064.2919   -2399.4637   0.81276012 
   31400    28.050684    3076.8082    656.78608   -3080.7756   -2423.9895   0.81276012 
   31500    28.272446    3107.9395     661.9785    -3093.535   -2431.5565   0.81276012 
   31600    28.258576    3061.1492    661.65372   -3097.7756   -2436.1218   0.81276012 
   31700    28.902133    3031.6172    676.72214   -3105.6803   -2428.9581   0.81276012 
   31800    28.188849    3028.9232    660.02111   -3106.0923   -2446.0711   0.81276012 
   31900    28.296131    3003.5005    662.53305   -3128.1381    -2465.605   0.81276012 
   32000    28.651135    2994.2685     670.8452   -3130.9228   -2460.0776   0.81276012 
   32100    28.785748    2975.0033    673.99707   -3138.6474   -2464.6503   0.81276012 
   32200    28.918635    2965.9204    677.10852   -3150.6212   -2473.5127   0.81276012 
   32300    28.918533    2992.8076    677.10612   -3163.5518   -2486.4457   0.81276012 
   32400    28.949049    2954.7983    677.82063   -3180.4859   -2502.6652   0.81276012 
   32500    29.017104    2989.2855     679.4141   -3180.5467   -2501.1326   0.81276012 
   32600    29.231561    2995.3866    684.43546   -3193.3562   -2508.9208   0.81276012 
   32700    29.711288    2959.5233     695.6679    -3192.264   -2496.5961   0.81276012 
   32800    29.016085    2968.0112    679.39024   -3200.3202   -2520.9299   0.81276012 
   32900    29.518216    2969.5105    691.14727   -3202.9634   -2511.8162   0.81276012 
   33000    29.099845    2950.0622    681.35142   -3220.0866   -2538.7352   0.81276012 
   33100    29.365385    2899.0156    687.56886   -3240.6581   -2553.0893   0.81276012 
   33200    29.357166    2921.1349     687.3764     -3247.77   -2560.3936   0.81276012 
   33300    29.767567    2927.5721    696.98564   -3250.6295   -2553.6438   0.81276012 
   33400    29.391287    2935.2191    688.17533   -3251.4445   -2563.2691   0.81276012 
   33500    29.990152     2928.686     702.1973   -3268.0484   -2565.8511   0.81276012 
   33600    29.352388    2859.9302    687.26454   -3257.5694   -2570.3049   0.81276012 
   33700     29.14403    2860.4042    682.38598   -3289.3598   -2606.9738   0.81276012 
   33800    29.731731    2897.2637    696.14656   -3275.4726   -2579.3261   0.81276012 
   33900    29.642745    2887.5053    694.06303   -3312.7385   -2618.6754   0.81276012 
   34000    29.443393    2901.1742    689.39535      -3308.7   -2619.3046   0.81276012 
   34100    29.931852    2854.7945    700.83225   -3324.2904   -2623.4581   0.81276012 
   34200       29.383    2858.1507    687.98129   -3350.8203    -2662.839   0.81276012 
   34300    29.852531    2856.2529      698.975   -3354.8746   -2655.8996   0.81276012 
   34400     30.20224    2888.9369    707.16318   -3363.0447   -2655.8816   0.81276012 
   34500    30.087917    2832.2178    704.48639   -3356.1249   -2651.6385   0.81276012 
   34600    29.916175    2804.1984     700.4652   -3373.7416   -2673.2764   0.81276012 
   34700    30.674737    2778.5219    718.22637   -3371.4949   -2653.2685   0.81276012 
   34800     30.35944    2829.3595    710.84391   -3393.5743   -2682.7304   0.81276012 
   34900    30.318232    2800.8596    709.87905   -3419.3442   -2709.4652   0.81276012 
   35000    29.859209    2806.8475    699.13138   -3429.2161   -2730.0848   0.81276012 
   35100    30.168571    2797.3532    706.37485   -3437.4325   -2731.0576   0.81276012 
   35200    30.456017    2752.0783    713.10519   -3450.5727   -2737.4675   0.81276012 
   35300    30.105086    2798.5424     704.8884   -3452.5337   -2747.6453   0.81276012 
   35400    29.637035    2738.8649    693.92932   -3468.3576   -2774.4283   0.81276012 
   35500    30.899846    2727.5391    723.49713   -3477.5701    -2754.073   0.81276012 
   35600     30.73322    2781.3703    719.59569   -3490.4377    -2770.842   0.81276012 
   35700    29.820765     2736.865    698.23123   -3495.5481   -2797.3168   0.81276012 
   35800    30.423871    2748.1245    712.35251   -3498.0753   -2785.7228   0.81276012 
   35900    30.865618    2725.3254     722.6957   -3511.3129   -2788.6172   0.81276012 
   36000    29.827208    2745.8713    698.38209   -3525.5634   -2827.1813   0.81276012 
   36100    30.618779    2716.3735    716.91614   -3536.4502   -2819.5341   0.81276012 
   36200    31.069393    2703.4349    727.46693   -3530.4509    -2802.984   0.81276012 
   36300    30.637827    2683.6878    717.36213   -3537.6994   -2820.3373   0.81276012 
   36400    30.404812    2675.3527    711.90627   -3545.3478   -2833.4415   0.81276012 
   36500    30.386774    2707.9223    711.48392   -3560.2871   -2848.8032   0.81276012 
   36600    30.186223    2651.6288    706.78816   -3565.0483   -2858.2602   0.81276012 
   36700    30.955513    2640.9706    724.80052    -3581.751   -2856.9504   0.81276012 
   36800    30.697057    2731.7128    718.74896   -3576.4189   -2857.6699   0.81276012 
   36900    31.414428    2676.2113    735.54567   -3598.8084   -2863.2627   0.81276012 
   37000    31.164746    2707.7827    729.69956   -3593.2936    -2863.594   0.81276012 
   37100    31.262009     2647.851    731.97691    -3612.016   -2880.0391   0.81276012 
   37200    31.223583    2635.1387    731.07718   -3627.0892    -2896.012   0.81276012 
   37300    31.405996    2665.3159    735.34825   -3649.3153   -2913.9671   0.81276012 
   37400    31.296886    2606.6111    732.79352   -3634.1079   -2901.3143   0.81276012 
   37500    31.660547     2611.844    741.30837   -3653.7596   -2912.4512   0.81276012 
   37600    31.582377    2604.4314    739.47808    -3682.129   -2942.6509   0.81276012 
   37700    31.533692    2603.1938    738.33815   -3692.3414   -2954.0032   0.81276012 
   37800    31.418861    2642.9552    735.64947   -3686.3268   -2950.6773   0.81276012 
   37900    31.465547    2628.4005     736.7426   -3688.7293   -2951.9867   0.81276012 
   38000    31.928111     2631.716    747.57318   -3702.8459   -2955.2727   0.81276012 
   38100    31.955498    2626.6104    748.21442   -3714.8274    -2966.613   0.81276012 
   38200    31.745978    2601.6149    743.30867   -3724.3816    -2981.073   0.81276012 
   38300    31.592301    2595.2731    739.71043   -3703.3568   -2963.6463   0.81276012 
   38400    31.984135    2604.4165    748.88494   -3730.1823   -2981.2974   0.81276012 
   38500    31.937213     2600.962    747.78631   -3718.9638   -2971.1775   0.81276012 
   38600    31.740523    2547.9292    743.18096   -3738.5848   -2995.4038   0.81276012 
   38700     31.61649    2560.7547    740.27682   -3746.8627   -3006.5859   0.81276012 
   38800    31.451097    2522.5048    736.40425   -3773.4193   -3037.0151   0.81276012 
   38900    31.680346    2552.8486    741.77195   -3764.0753   -3022.3033   0.81276012 
   39000     31.46526    2514.3473    736.73586   -3755.5449    -3018.809   0.81276012 
   39100    31.971301    2513.5414    748.58445   -3784.5414   -3035.9569   0.81276012 
   39200    31.424982    2512.1849     735.7928      -3796.4   -3060.6072   0.81276012 
   39300    31.978758     2585.599    748.75904   -3794.1156   -3045.3566   0.81276012 
   39400    31.781901    2549.7603    744.14978   -3799.2106   -3055.0608   0.81276012 
   39500    32.169988    2508.3472    753.23656   -3825.2757   -3072.0391   0.81276012 
   39600    32.279576    2533.7215    755.80249   -3834.2487   -3078.4462   0.81276012 
   39700    31.747237    2522.5498    743.33816   -3837.2606   -3093.9224   0.81276012 
   39800     32.15046    2522.2263    752.77933   -3852.3343    -3099.555   0.81276012 
   39900    32.511571    2494.2798    761.23448   -3850.3062   -3089.0718   0.81276012 
   40000    31.911662    2485.1617    747.18805   -3877.9065   -3130.7184   0.81276012 
   40100    31.644809    2456.4509    740.93987   -3887.7772   -3146.8373   0.81276012 
   40200    32.108306    2501.6354    751.79233   -3885.9606   -3134.1682   0.81276012 
   40300    32.655916    2484.1503    764.61421   -3906.0036   -3141.3894   0.81276012 
   40400    32.891286    2486.3103    770.12521   -3924.3674   -3154.2422   0.81276012 
   40500    32.810232    2464.4334     768.2274   -3936.6774     -3168.45   0.81276012 
   40600    33.034221    2462.6368    773.47194   -3916.3192   -3142.8473   0.81276012 
   40700    32.738433    2495.2467    766.54628   -3925.7522   -3159.2059   0.81276012 
   40800    32.950228    2449.7015    771.50531   -3940.0349   -3168.5296   0.81276012 
   40900    32.305635    2443.8632    756.41263   -3946.2335   -3189.8209   0.81276012 
   41000    33.341431    2414.5065    780.66504   -3953.5704   -3172.9053   0.81276012 
   41100    32.944089    2424.5737    771.36157   -3951.2203   -3179.8587   0.81276012 
   41200    32.688282    2405.7709    765.37203   -3963.6357   -3198.2637   0.81276012 
   41300    32.705701    2409.2316    765.77988   -3979.1839    -3213.404   0.81276012 
   41400     32.78902    2401.1087    767.73073   -3994.9242   -3227.1935   0.81276012 
   41500    32.392615    2435.5397    758.44921   -3992.7006   -3234.2514   0.81276012 
   41600    33.053186    2395.6657      773.916   -4014.7833   -3240.8673   0.81276012 
   41700     32.69898    2367.2925    765.62251     -4015.58   -3249.9575   0.81276012 
   41800    33.125901    2369.9924    775.61856   -4019.2149   -3243.5963   0.81276012 
   41900    33.317079    2447.4509    780.09484   -4052.5401   -3272.4452   0.81276012 
   42000    33.182846    2384.9211    776.95187   -4052.2791   -3275.3272   0.81276012 
   42100    33.471392     2295.758    783.70798   -4047.9197   -3264.2117   0.81276012 
   42200    33.279165    2351.2992    779.20711   -4061.5116   -3282.3045   0.81276012 
   42300    32.912947    2394.2073    770.63241   -4078.4133   -3307.7809   0.81276012 
   42400     33.29843    2324.8133    779.65819   -4096.8185   -3317.1603   0.81276012 
   42500    33.855258    2339.4013    792.69592   -4095.3172   -3302.6213   0.81276012 
   42600     33.37816    2338.2496    781.52501   -4096.5706   -3315.0456   0.81276012 
   42700    33.623401    2337.1587    787.26714   -4106.0324   -3318.7653   0.81276012 
   42800    33.074931    2282.9333    774.42512   -4131.3564   -3356.9313   0.81276012 
   42900    33.864626    2313.5308    792.91527   -4139.0239   -3346.1086   0.81276012 
   43000    33.567472    2340.6707    785.95761   -4145.2117   -3359.2541   0.81276012 
   43100     33.04637    2321.4293    773.75639   -4126.8748   -3353.1184   0.81276012 
   43200    33.156198    2290.0028    776.32794   -4132.9212   -3356.5933   0.81276012 
   43300    33.794856    2293.7514    791.28165   -4130.2692   -3338.9876   0.81276012 
   43400    33.332108    2302.6989    780.44673   -4151.6954   -3371.2487   0.81276012 
   43500    33.611418    2246.9363    786.98659   -4174.9131   -3387.9265   0.81276012 
   43600    34.301389    2291.3235    803.14174   -4174.7301   -3371.5883   0.81276012 
   43700    33.912491    2260.2255    794.03598   -4185.2471   -3391.2111   0.81276012 
   43800    34.078035    2234.2406    797.91207   -4204.9975   -3407.0855   0.81276012 
   43900    33.669685    2248.4273    788.35086   -4210.3109     -3421.96   0.81276012 
   44000    33.527113    2267.9418    785.01265   -4214.7436    -3429.731   0.81276012 
   44100    33.741656    2250.8063    790.03601   -4229.6893   -3439.6533   0.81276012 
   44200    34.011531     2243.608    796.35494   -4229.6373   -3433.2824   0.81276012 
   44300    34.049848    2196.9793     797.2521   -4237.4392   -3440.1871   0.81276012 
   44400     33.84653    2226.7593    792.49156   -4248.6236   -3456.1321   0.81276012 
   44500    34.566286     2184.099    809.34411   -4241.5569   -3432.2128   0.81276012 
   44600    34.001504    2210.2447    796.12015   -4244.5417   -3448.4215   0.81276012 
   44700    33.810951    2206.2703     791.6585   -4258.2957   -3466.6372   0.81276012 
   44800    34.240644    2262.8627    801.71944   -4252.4994     -3450.78   0.81276012 
   44900    33.859473    2202.9309    792.79461   -4257.3474   -3464.5528   0.81276012 
   45000    34.033987    2189.7552    796.88072    -4261.168   -3464.2873   0.81276012 
   45100    34.352702    2165.9663    804.34321   -4285.8067   -3481.4635   0.81276012 
   45200    33.761445    2171.4965    790.49935    -4263.559   -3473.0597   0.81276012 
   45300    34.886876    2146.6344    816.85048   -4283.2952   -3466.4447   0.81276012 
   45400     34.98765    2213.5592    819.21003   -4279.0923   -3459.8823   0.81276012 
   45500    34.539808    2174.8575    808.72414   -4282.3749   -3473.6508   0.81276012 
   45600    34.753955    2152.4348    813.73824   -4303.2135   -3489.4753   0.81276012 
   45700    34.347015    2182.2183    804.21005   -4306.0464   -3501.8363   0.81276012 
   45800    34.492578    2153.2275     807.6183   -4281.2824   -3473.6641   0.81276012 
   45900     35.23233    2182.1724    824.93903   -4314.7437   -3489.8047   0.81276012 
   46000    34.847729    2157.6626     815.9339   -4325.8121   -3509.8782   0.81276012 
   46100    34.608013    2133.2588    810.32111   -4317.4918   -3507.1707   0.81276012 
   46200    34.820208    2150.2663    815.28951   -4327.4356   -3512.1461   0.81276012 
   46300     35.00804    2070.9673    819.68745   -4337.3512   -3517.6638   0.81276012 
   46400    34.632502    2149.1926     810.8945   -4376.8799   -3565.9854   0.81276012 
   46500    34.829281    2179.5243    815.50195   -4341.8449   -3526.3429   0.81276012 
   46600    34.501096    2167.1819    807.81774   -4350.0322   -3542.2145   0.81276012 
   46700    34.888498    2098.3154    816.88848   -4367.8365    -3550.948   0.81276012 
   46800    34.321778    2135.6122    803.61914   -4369.4302    -3565.811   0.81276012 
   46900    34.965341    2126.8563     818.6877   -4379.6134   -3560.9257   0.81276012 
   47000     35.26354    2106.1258     825.6698    -4390.266   -3564.5962   0.81276012 
   47100    35.318513    2150.4704    826.95694   -4372.5398   -3545.5828   0.81276012 
   47200    35.998601    2092.4724    842.88071   -4385.8965   -3543.0158   0.81276012 
   47300    34.836727    2155.9662    815.67628   -4369.7574   -3554.0811   0.81276012 
   47400    34.894161    2115.7868    817.02105   -4417.2331   -3600.2121   0.81276012 
   47500    34.876658    2118.8352    816.61124   -4414.9038   -3598.2926   0.81276012 
   47600    36.094588    2125.0942    845.12816    -4415.758   -3570.6299   0.81276012 
   47700    35.370597    2071.6634    828.17646   -4431.1826   -3603.0061   0.81276012 
   47800    35.740733    2084.0903    836.84292   -4452.9136   -3616.0707   0.81276012 
   47900    35.501375    2049.4746    831.23852   -4444.2737   -3613.0352   0.81276012 
   48000    35.560576    2117.1438    832.62469   -4462.3413   -3629.7166   0.81276012 
   48100    35.776845    2040.6568    837.68846   -4454.2995   -3616.6111   0.81276012 
   48200     35.10017    2087.4137    821.84462   -4480.1205   -3658.2758   0.81276012 
   48300    35.610163    2070.6264    833.78573   -4485.2803   -3651.4946   0.81276012 
   48400    35.785948    1996.0312    837.90159    -4497.145   -3659.2434   0.81276012 
   48500    36.287113     2032.828      849.636   -4501.1365   -3651.5005   0.81276012 
   48600    35.727333    2064.8075    836.52916    -4482.048   -3645.5188   0.81276012 
   48700    35.480745    2039.8216    830.75549   -4489.6961   -3658.9406   0.81276012 
   48800    35.715498    2044.2765    836.25207   -4508.0821     -3671.83   0.81276012 
   48900    36.204757    1995.1522     847.7077   -4518.9127    -3671.205   0.81276012 
   49000      35.8073    2092.5394    838.40155   -4525.0263   -3686.6248   0.81276012 
   49100    35.922749    2084.9358     841.1047   -4527.0392   -3685.9345   0.81276012 
   49200    36.563283    2053.0086    856.10233    -4568.393   -3712.2906   0.81276012 
   49300    35.854642    2007.2644    839.51001   -4582.3285   -3742.8185   0.81276012 
   49400    35.750105    2039.8449    837.06236   -4568.6912   -3731.6289   0.81276012 
   49500    35.738613    2025.1397    836.79329   -4571.5241   -3734.7308   0.81276012 
   49600    36.437558    1979.7961    853.15857   -4594.2154   -3741.0569   0.81276012 
   49700     36.67678    1953.1522    858.75976   -4583.8721   -3725.1124   0.81276012 
   49800    36.356187    2014.4136    851.25333     -4595.27   -3744.0167   0.81276012 
   49900    36.684494    1968.6997    858.94039   -4593.8713    -3734.931   0.81276012 
   50000    36.240652    2007.1906    848.54816   -4623.4273   -3774.8791   0.81276012 
   50100    36.183737    1988.2725    847.21554   -4619.1736    -3771.958   0.81276012 
   50200    36.119611    2027.0297    845.71406   -4619.4858   -3773.7718   0.81276012 
   50300    36.630472     1986.208    857.67551   -4614.8647   -3757.1892   0.81276012 
   50400    36.080432    1903.0837    844.79673   -4623.2418   -3778.4451   0.81276012 
   50500    35.993064    1931.4104    842.75107   -4604.8938   -3762.1428   0.81276012 
   50600    36.156346    2014.3302    846.57419   -4640.8962    -3794.322   0.81276012 
   50700      36.5514    2008.8291    855.82409    -4655.628   -3799.8039   0.81276012 
   50800    36.652424    1938.7638    858.18948   -4665.2603   -3807.0708   0.81276012 
   50900    35.771962    1944.3081    837.57413    -4640.323   -3802.7489   0.81276012 
   51000    36.793562    1957.7215    861.49414   -4680.9647   -3819.4705   0.81276012 
   51100    36.754311    1940.7404    860.57511   -4683.7606   -3823.1855   0.81276012 
   51200     36.41844    1961.7337    852.71092   -4668.5938   -3815.8829   0.81276012 
   51300    36.324828    1925.3414    850.51908   -4683.4812   -3832.9621   0.81276012 
   51400    37.216679    1930.3335    871.40111   -4708.4653   -3837.0642   0.81276012 
   51500    36.664446    1966.7471    858.47098   -4686.8777   -3828.4067   0.81276012 
   51600    36.334595    1919.5266    850.74776   -4676.9235   -3826.1757   0.81276012 
   51700    36.460577    1864.8045    853.69754   -4691.2165   -3837.5189   0.81276012 
   51800    36.880022    1906.7132    863.51854   -4690.3541   -3826.8355   0.81276012 
   51900    36.745088    1852.5879    860.35915   -4694.4329   -3834.0737   0.81276012 
   52000    36.696409    1891.8744    859.21937   -4705.8509   -3846.6315   0.81276012 
   52100    37.124993    1951.5714    869.25434   -4713.0817   -3843.8273   0.81276012 
   52200    37.317641    1904.6009    873.76505   -4714.2555   -3840.4905   0.81276012 
   52300    37.552387    1919.1831    879.26146   -4707.5264   -3828.2649   0.81276012 
   52400    37.141122    1938.4286      869.632   -4697.3252   -3827.6932   0.81276012 
   52500    36.830163    1886.0267    862.35111   -4738.3434   -3875.9923   0.81276012 
   52600    36.640697    1923.1683    857.91491   -4732.3188   -3874.4039   0.81276012 
   52700    37.775983    1955.6496     884.4968   -4727.2563   -3842.7595   0.81276012 
   52800    37.593759    1918.3292    880.23016   -4718.9072    -3838.677   0.81276012 
   52900    37.203162    1885.3901    871.08461   -4717.1981   -3846.1135   0.81276012 
   53000    37.503781    1871.6368    878.12338   -4720.4623   -3842.3389   0.81276012 
   53100    37.184189    1961.2677    870.64037   -4735.2957   -3864.6553   0.81276012 
   53200    36.727419    1868.9304    859.94545   -4737.2569   -3877.3115   0.81276012 
   53300     37.43928    1886.7688    876.61314   -4760.3939   -3883.7808   0.81276012 
   53400    37.722158    1803.2385    883.23653   -4750.2522   -3867.0157   0.81276012 
   53500    37.804391    1913.6817    885.16194   -4770.0498   -3884.8879   0.81276012 
   53600    37.955237    1899.8833     888.6939   -4756.7071   -3868.0132   0.81276012 
   53700    37.701148    1828.3933    882.74458   -4757.6063   -3874.8617   0.81276012 
   53800    38.191036    1860.1608    894.21497   -4741.9701   -3847.7551   0.81276012 
   53900    37.078643    1842.0761    868.16909   -4767.6023   -3899.4333   0.81276012 
   54000    37.627818     1877.673    881.02762   -4757.7814   -3876.7537   0.81276012 
   54100    37.950343    1839.5222    888.57932    -4776.784   -3888.2047   0.81276012 
   54200    38.030621    1840.9017    890.45896   -4779.0418   -3888.5828   0.81276012 
   54300    38.592365    1805.7009    903.61178    -4773.711   -3870.0993   0.81276012 
   54400    37.318554    1882.5039    873.78644   -4792.7693   -3918.9829   0.81276012 
   54500    37.474639    1815.1009    877.44106   -4784.6245   -3907.1834   0.81276012 
   54600    38.367547    1828.7112    898.34784   -4798.3184   -3899.9706   0.81276012 
   54700    37.466797    1873.3166    877.25744   -4799.9944   -3922.7369   0.81276012 
   54800    37.397589    1776.4135    875.63697   -4778.4099   -3902.7729   0.81276012 
   54900     37.88118    1881.7263     886.9599   -4799.6922   -3912.7323   0.81276012 
   55000    37.885048    1840.0458    887.05048   -4807.0621   -3920.0117   0.81276012 
   55100     38.76784    1827.2227     907.7204   -4808.6791   -3900.9587   0.81276012 
   55200    38.061722    1818.1985    891.18717   -4798.6304   -3907.4432   0.81276012 
   55300    38.706034    1790.0261    906.27327   -4817.0343    -3910.761   0.81276012 
   55400    39.032496    1818.1087    913.91713    -4814.418   -3900.5009   0.81276012 
   55500    38.645293    1863.3302    904.85104   -4818.2422   -3913.3912   0.81276012 
   55600    38.713808    1736.8675    906.45528   -4818.1382   -3911.6829   0.81276012 
   55700    38.675794    1784.1605     905.5652    -4812.442   -3906.8768   0.81276012 
   55800    38.156514    1716.9868    893.40665    -4825.358   -3931.9513   0.81276012 
   55900    37.575676    1793.6994    879.80676   -4860.2399   -3980.4331   0.81276012 
   56000    39.023039    1785.1901     913.6957   -4831.8442   -3918.1485   0.81276012 
   56100    37.853838     1805.112    886.31971   -4855.4374   -3969.1177   0.81276012 
   56200    38.561631    1803.2372    902.89218   -4872.4889   -3969.5967   0.81276012 
   56300    39.018261    1809.4192    913.58382   -4834.0242   -3920.4404   0.81276012 
   56400    38.560035    1848.6354    902.85479   -4825.3526   -3922.4978   0.81276012 
   56500    38.327087    1739.0815    897.40049   -4834.4126   -3937.0121   0.81276012 
   56600    38.883467    1726.2991    910.42772    -4856.233   -3945.8053   0.81276012 
   56700     38.74555    1793.6522    907.19849   -4873.7678   -3966.5693   0.81276012 
   56800    38.135294    1761.2494     892.9098   -4857.8837   -3964.9739   0.81276012 
   56900    38.487845     1777.359    901.16453   -4860.9004   -3959.7359   0.81276012 
   57000    39.542873    1757.3545    925.86724   -4859.0232    -3933.156   0.81276012 
   57100    38.790662    1787.5075    908.25476   -4860.3966   -3952.1418   0.81276012 
   57200    38.723571    1703.0636    906.68388   -4851.4218   -3944.7379   0.81276012 
   57300    39.193766     1673.606    917.69313   -4878.8938   -3961.2007   0.81276012 
   57400    38.797704    1763.2612    908.41964    -4887.721   -3979.3014   0.81276012 
   57500    38.223657     1803.904    894.97875   -4893.6452   -3998.6665   0.81276012 
   57600    38.930666    1739.5199    911.53286   -4899.9094   -3988.3766   0.81276012 
   57700    38.972379    1738.9969    912.50953   -4883.6419   -3971.1324   0.81276012 
   57800    38.578413     1768.073    903.28511   -4873.2843   -3969.9992   0.81276012 
   57900    39.668647    1747.2043    928.81212    -4886.324   -3957.5119   0.81276012 
   58000    38.959734    1736.8055    912.21345   -4881.2924    -3969.079   0.81276012 
   58100    39.380292    1729.9721    922.06051   -4894.2907   -3972.2302   0.81276012 
   58200    38.827351    1704.8882    909.11381   -4893.6014   -3984.4876   0.81276012 
   58300    38.908081    1694.8132    911.00405   -4893.9841   -3982.9801   0.81276012 
   58400     39.95159    1694.2772    935.43702   -4885.7838   -3950.3468   0.81276012 
   58500    38.901455    1776.2844    910.84889   -4900.7789     -3989.93   0.81276012 
   58600    39.904756    1818.5308    934.34046   -4928.1663   -3993.8258   0.81276012 
   58700    38.952327     1776.261    912.04002   -4905.6475   -3993.6074   0.81276012 
   58800    39.134379    1731.5654    916.30263   -4919.8925   -4003.5898   0.81276012 
   58900    38.933423    1708.9774     911.5974   -4902.9432   -3991.3458   0.81276012 
   59000    39.646375     1761.144    928.29066   -4897.2882   -3968.9975   0.81276012 
   59100    39.281329    1711.3381    919.74336   -4886.6973    -3966.954   0.81276012 
   59200    40.131078    1702.5562    939.63962   -4900.1136    -3960.474   0.81276012 
   59300    39.650133    1744.4058    928.37864    -4918.799   -3990.4204   0.81276012 
   59400    39.274555    1725.1027    919.58475    -4909.554   -3989.9693   0.81276012 
   59500    39.175732    1725.0845    917.27089   -4887.1684   -3969.8975   0.81276012 
   59600    39.372456    1748.7982    921.87705   -4925.7789   -4003.9018   0.81276012 
   59700    40.088937    1753.4162     938.6529   -4924.4136   -3985.7607   0.81276012 
   59800    39.775227     1730.423    931.30763   -4935.5583   -4004.2506   0.81276012 
   59900    39.121377    1753.5493    915.99821   -4929.3434   -4013.3452   0.81276012 
   60000    39.608309    1689.0293    927.39936   -4927.6399   -4000.2405   0.81276012 
   60100    40.067979    1703.0486    938.16221   -4932.6953   -3994.5331   0.81276012 
   60200    40.333338    1711.5464    944.37539   -4914.9107   -3970.5353   0.81276012 
   60300    40.264597      1684.53    942.76586   -4938.1977   -3995.4319   0.81276012 
   60400     40.13073    1662.6933    939.63146   -4931.0475    -3991.416   0.81276012 
   60500     39.78537    1664.3734    931.54512   -4965.8394   -4034.2943   0.81276012 
   60600    39.991448    1640.6706    936.37027   -4940.6615   -4004.2913   0.81276012 
   60700    40.241166    1679.4372    942.21724   -4944.9124   -4002.6951   0.81276012 
   60800    40.350558    1691.3798    944.77857   -4971.7791   -4027.0006   0.81276012 
   60900     40.12702      1715.97     939.5446   -4950.6806    -4011.136   0.81276012 
   61000    41.201638       1653.8    964.70598   -4954.1474   -3989.4414   0.81276012 
   61100    40.270866    1644.0041    942.91264     -4978.93   -4036.0174   0.81276012 
   61200    40.245722    1689.1142    942.32392   -4954.1275   -4011.8036   0.81276012 
   61300    40.277146    1711.8138    943.05969   -4984.5614   -4041.5017   0.81276012 
   61400     40.22299    1693.0462    941.79166   -4980.4359   -4038.6443   0.81276012 
   61500    40.381239    1664.4751    945.49695     -5000.66   -4055.1631   0.81276012 
   61600    41.113461    1664.0383    962.64138   -4998.5402   -4035.8988   0.81276012 
   61700    40.631194    1588.1553    951.34946   -4986.3833   -4035.0338   0.81276012 
   61800    40.900332     1639.526    957.65112   -4982.4341    -4024.783   0.81276012 
   61900    40.075175    1585.9313     938.3307   -4994.9587    -4056.628   0.81276012 
   62000    40.391514    1598.6284    945.73752   -4999.3306   -4053.5931   0.81276012 
   62100    40.141222    1646.8737    939.87712   -4985.0041    -4045.127   0.81276012 
   62200    39.950845    1644.6485    935.41958   -5010.0262   -4074.6066   0.81276012 
   62300    39.683713    1624.4971    929.16489   -5008.4172   -4079.2523   0.81276012 
   62400    41.574778     1610.729    973.44278   -4993.7802   -4020.3374   0.81276012 
   62500    41.547558    1638.2158    972.80544   -4999.9651   -4027.1597   0.81276012 
   62600    41.435482    1697.0282    970.18126   -5019.5809   -4049.3996   0.81276012 
   62700    40.611019    1608.7819    950.87709   -5000.7006   -4049.8235   0.81276012 
   62800     40.71744    1617.5618    953.36885   -4998.9982   -4045.6293   0.81276012 
   62900    40.229371    1686.2585    941.94107   -5008.9931    -4067.052   0.81276012 
   63000    40.396582    1617.6241     945.8562   -4994.7871   -4048.9309   0.81276012 
   63100    40.783414    1636.7847    954.91358   -5043.5433   -4088.6297   0.81276012 
   63200    40.616162    1635.2049    950.99749   -5009.7671   -4058.7697   0.81276012 
   63300    40.578897    1596.1904    950.12495   -5017.7397   -4067.6147   0.81276012 
   63400    40.919325     1581.832    958.09584   -5032.6829    -4074.587   0.81276012 
   63500    41.274749    1636.2253    966.41782   -5024.6376   -4058.2198   0.81276012 
   63600    41.201767    1559.1073    964.70901    -5032.499     -4067.79   0.81276012 
   63700    40.970273    1669.1755    959.28875   -5034.1917    -4074.903   0.81276012 
   63800    41.483474    1577.8394    971.30496   -5040.3818   -4069.0768   0.81276012 
   63900    40.508389    1616.7714    948.47408   -5042.2435   -4093.7694   0.81276012 
   64000     41.18518    1607.1256    964.32064    -5051.227   -4086.9063   0.81276012 
   64100    40.582286    1597.2958    950.20432    -5047.065   -4096.8606   0.81276012 
   64200    41.334081    1557.3314    967.80705   -5032.5725   -4064.7654   0.81276012 
   64300    41.589637    1601.7608    973.79071   -5040.0343   -4066.2436   0.81276012 
   64400    40.954781    1565.8786    958.92602   -5014.3511   -4055.4251   0.81276012 
   64500    41.798785    1595.7381    978.68773      -5024.3   -4045.6122   0.81276012 
   64600    41.006152    1627.4058    960.12884   -5041.6665   -4081.5377   0.81276012 
   64700    41.920359    1628.5735     981.5343   -5044.7604   -4063.2261   0.81276012 
   64800    42.010623    1625.5272    983.64777   -5058.9347   -4075.2869   0.81276012 
   64900    41.349982     1592.543    968.17936   -5078.1939   -4110.0145   0.81276012 
   65000    41.628218    1596.0357    974.69403   -5087.9792   -4113.2852   0.81276012 
   65100    41.831229    1552.6399     979.4474   -5087.6345   -4108.1871   0.81276012 
   65200     41.13333    1572.2384     963.1066   -5066.7425   -4103.6359   0.81276012 
   65300    42.155661     1571.439    987.04372   -5071.9455   -4084.9018   0.81276012 
   65400    41.597373    1559.1791    973.97184   -5078.5563   -4104.5844   0.81276012 
   65500    42.219184    1573.6025    988.53108   -5089.4338   -4100.9027   0.81276012 
   65600    41.419297    1545.7899    969.80231   -5067.7297   -4097.9274   0.81276012 
   65700    41.491502    1630.7068    971.49293   -5092.3858   -4120.8929   0.81276012 
   65800    42.503889    1525.7889    995.19722   -5086.7797   -4091.5824   0.81276012 
   65900    42.656625    1527.3028    998.77342    -5105.174   -4106.4005   0.81276012 
   66000    42.266503    1523.1581    989.63901   -5103.3619   -4113.7228   0.81276012 
   66100    41.852682    1563.4781    979.94971   -5059.3294   -4079.3797   0.81276012 
   66200     42.22103    1558.8803    988.57429    -5082.113   -4093.5387   0.81276012 
   66300    41.896705    1538.0988    980.98046   -5109.6864    -4128.706   0.81276012 
   66400    42.045138    1529.1825    984.45592    -5095.167   -4110.7111   0.81276012 
   66500    42.249144    1526.2971    989.23257    -5096.033   -4106.8004   0.81276012 
   66600    41.851846    1530.4614    979.93013   -5122.8275   -4142.8974   0.81276012 
   66700    43.249482    1561.3202    1012.6547   -5085.1622   -4072.5075   0.81276012 
   66800    42.618633    1534.8524    997.88388   -5089.3428   -4091.4589   0.81276012 
   66900    41.704727    1522.9038    976.48545   -5095.8717   -4119.3863   0.81276012 
   67000     42.15201    1527.4029    986.95824    -5112.474   -4125.5158   0.81276012 
   67100    42.100226    1505.3971    985.74576   -5108.9489   -4123.2032   0.81276012 
   67200    42.534486    1485.3653    995.91363   -5122.4246    -4126.511   0.81276012 
   67300    42.344553     1456.759    991.46649   -5120.9334   -4129.4669   0.81276012 
   67400    42.404343    1531.5147    992.86645   -5115.8022   -4122.9358   0.81276012 
   67500    42.306739    1505.3595    990.58111   -5097.6204   -4107.0392   0.81276012 
   67600    42.300975    1451.9426    990.44616   -5145.7964   -4155.3502   0.81276012 
   67700    43.013341    1523.6772    1007.1257   -5112.7329   -4105.6073   0.81276012 
   67800      42.1563    1439.6047    987.05869   -5119.2618   -4132.2031   0.81276012 
   67900    42.066508    1588.2838    984.95627   -5127.8292   -4142.8729   0.81276012 
   68000    43.118719    1525.2429     1009.593   -5151.8309   -4142.2379   0.81276012 
   68100    43.034755    1536.8627    1007.6271   -5111.5987   -4103.9717   0.81276012 
   68200    43.142006    1549.6087    1010.1383   -5142.6917   -4132.5535   0.81276012 
   68300    43.581529    1496.3017    1020.4294   -5137.0137   -4116.5843   0.81276012 
   68400    43.169849    1496.7499    1010.7902   -5120.1999   -4109.4097   0.81276012 
   68500    42.772336    1482.3568    1001.4827   -5127.5804   -4126.0977   0.81276012 
   68600    42.765647    1525.4957    1001.3261   -5142.4789   -4141.1528   0.81276012 
   68700    43.762746    1478.5086    1024.6724   -5149.3509   -4124.6784   0.81276012 
   68800    43.900225    1442.5183    1027.8914    -5125.477   -4097.5855   0.81276012 
   68900    43.407282    1522.2195    1016.3495   -5155.8107   -4139.4611   0.81276012 
   69000    43.574929    1447.6828    1020.2748   -5145.8215   -4125.5467   0.81276012 
   69100    43.024483    1457.8812    1007.3866   -5154.6686    -4147.282   0.81276012 
   69200    43.466432    1524.5248    1017.7345   -5144.2042   -4126.4697   0.81276012 
   69300    43.106844    1459.2913     1009.315   -5161.6878   -4152.3728   0.81276012 
   69400    42.797202     1494.273    1002.0649   -5139.1783   -4137.1133   0.81276012 
   69500    43.441587    1453.0624    1017.1527   -5151.1354   -4133.9826   0.81276012 
   69600    42.996608     1474.916    1006.7339     -5150.74   -4144.0061   0.81276012 
   69700    43.249012    1451.0558    1012.6437   -5166.5457    -4153.902   0.81276012 
   69800    43.751391     1486.639    1024.4066   -5178.8231   -4154.4166   0.81276012 
   69900    43.439507    1436.0448     1017.104   -5175.8331    -4158.729   0.81276012 
   70000    44.347615    1481.6804    1038.3667    -5137.475   -4099.1083   0.81276012 
   70100    42.808334    1487.9169    1002.3256    -5199.839   -4197.5134   0.81276012 
   70200    43.746075    1414.2247    1024.2821   -5153.1384   -4128.8563   0.81276012 
   70300    43.430641    1465.2844    1016.8964   -5183.7791   -4166.8827   0.81276012 
   70400    43.187943    1440.9396    1011.2139   -5147.4221   -4136.2082   0.81276012 
   70500    44.199771    1402.6929    1034.9051   -5161.6819   -4126.7769   0.81276012 
   70600     43.99547     1430.606    1030.1215   -5146.0542   -4115.9327   0.81276012 
   70700    43.987241    1449.7221    1029.9288   -5155.6178    -4125.689   0.81276012 
   70800    43.495629    1504.0518    1018.4181   -5178.5277   -4160.1096   0.81276012 
   70900    44.751984    1417.3857    1047.8347   -5172.8001   -4124.9654   0.81276012 
   71000    43.639246    1412.2442    1021.7808   -5168.2745   -4146.4938   0.81276012 
   71100    43.590082     1459.683    1020.6297    -5170.901   -4150.2713   0.81276012 
   71200    44.072384    1484.9763    1031.9224   -5172.7324     -4140.81   0.81276012 
   71300     43.74816    1480.1899    1024.3309   -5194.7421   -4170.4112   0.81276012 
   71400    42.890414     1429.488    1004.2474   -5192.5492   -4188.3018   0.81276012 
   71500    42.968136    1448.7857    1006.0672   -5198.7949   -4192.7276   0.81276012 
   71600    43.891087    1495.7955    1027.6774   -5196.4491   -4168.7716   0.81276012 
   71700    44.585706    1418.6562    1043.9415   -5181.7304   -4137.7889   0.81276012 
   71800    43.836336    1417.6112    1026.3955   -5177.5841   -4151.1886   0.81276012 
   71900    44.122296    1410.5097     1033.091   -5199.2537   -4166.1627   0.81276012 
   72000    44.758592    1452.8025    1047.9894   -5192.7603   -4144.7709   0.81276012 
   72100    44.491146    1382.3492    1041.7274    -5210.364   -4168.6366   0.81276012 
   72200    43.677109    1383.7568    1022.6673   -5183.7043    -4161.037   0.81276012 
   72300    44.008446    1420.4558    1030.4253   -5189.8281   -4159.4027   0.81276012 
   72400    44.715375    1433.2416    1046.9775    -5201.418   -4154.4405   0.81276012 
   72500    44.619599     1448.396     1044.735     -5211.29    -4166.555   0.81276012 
   72600     45.08345    1421.9493    1055.5957   -5205.3982   -4149.8024   0.81276012 
   72700    45.361064     1380.619    1062.0959   -5210.4429    -4148.347   0.81276012 
   72800    44.049143    1418.4203    1031.3782   -5196.6818   -4165.3036   0.81276012 
   72900    44.503803    1411.0276    1042.0238    -5215.406   -4173.3822   0.81276012 
   73000    44.786348    1378.4224    1048.6393   -5210.6348   -4161.9955   0.81276012 
   73100    44.383135    1371.4276    1039.1984   -5204.2784     -4165.08   0.81276012 
   73200    44.225852    1442.8797    1035.5157   -5219.7412   -4184.2255   0.81276012 
   73300    44.392575    1494.5338    1039.4194   -5212.4687   -4173.0492   0.81276012 
   73400    44.787139    1421.0757    1048.6579   -5200.4012   -4151.7433   0.81276012 
   73500    44.855901    1423.6287    1050.2679   -5212.3961   -4162.1282   0.81276012 
   73600     44.24598    1426.1947     1035.987   -5209.3289   -4173.3419   0.81276012 
   73700    45.018369    1389.2175    1054.0719   -5202.4342   -4148.3623   0.81276012 
   73800    44.296552    1523.5714    1037.1711   -5227.3229   -4190.1517   0.81276012 
   73900    43.937543    1479.5558    1028.7652   -5204.3279   -4175.5627   0.81276012 
   74000    44.255065     1387.168    1036.1997   -5210.2501   -4174.0504   0.81276012 
   74100    44.592873      1353.43    1044.1092   -5246.0762   -4201.9669   0.81276012 
   74200    44.265967    1330.9911     1036.455   -5216.8696   -4180.4146   0.81276012 
   74300    44.220931    1324.1441    1035.4005   -5210.4455    -4175.045   0.81276012 
   74400    45.259732    1355.5923    1059.7233   -5224.0543    -4164.331   0.81276012 
   74500    43.950687     1393.852    1029.0729   -5219.6071   -4190.5342   0.81276012 
   74600    45.260611    1412.3011    1059.7439   -5223.5801   -4163.8363   0.81276012 
   74700    44.696515    1478.5546     1046.536   -5243.9357   -4197.3998   0.81276012 
   74800    45.351933    1365.8035    1061.8821   -5241.0044   -4179.1223   0.81276012 
   74900    44.982851    1409.6573    1053.2403   -5244.7908   -4191.5505   0.81276012 
   75000    44.976163    1395.3492    1053.0837   -5241.5665   -4188.4828   0.81276012 
   75100    45.441467    1383.7858    1063.9785   -5228.8306   -4164.8522   0.81276012 
   75200    44.509453    1357.1559     1042.156   -5219.1976   -4177.0415   0.81276012 
   75300    45.303079    1399.5688    1060.7382   -5250.7921   -4190.0539   0.81276012 
   75400     45.60611    1482.5498    1067.8335   -5250.8458   -4183.0124   0.81276012 
   75500    46.182739     1350.324    1081.3348   -5209.0166   -4127.6818   0.81276012 
   75600    45.282504    1393.5672    1060.2564   -5227.1877   -4166.9312   0.81276012 
   75700    46.266225    1378.1135    1083.2896   -5264.6757   -4181.3861   0.81276012 
   75800    45.008327    1372.2863    1053.8368   -5244.4369   -4190.6001   0.81276012 
   75900    47.010903    1390.5654    1100.7256   -5245.1623   -4144.4366   0.81276012 
   76000    46.004752    1351.2106    1077.1674   -5252.1042   -4174.9369   0.81276012 
   76100    45.844407    1359.0259     1073.413   -5244.1197   -4170.7067   0.81276012 
   76200    45.453446    1288.0202    1064.2589   -5227.2537   -4162.9948   0.81276012 
   76300    44.666848    1384.3479    1045.8413   -5238.9988   -4193.1575   0.81276012 
   76400    45.342712     1367.597    1061.6662   -5230.7854   -4169.1193   0.81276012 
   76500    45.827408     1318.759     1073.015   -5246.8762   -4173.8612   0.81276012 
   76600     45.23225    1402.0483    1059.0798   -5244.9197   -4185.8399   0.81276012 
   76700    45.026499    1337.8245    1054.2623   -5205.4349   -4151.1726   0.81276012 
   76800    45.363076    1364.7222     1062.143   -5252.3944   -4190.2514   0.81276012 
   76900    46.209535    1361.6898    1081.9622   -5280.4938   -4198.5316   0.81276012 
   77000    46.033112    1357.0655    1077.8314   -5252.9909   -4175.1595   0.81276012 
   77100    45.301444    1376.1781    1060.6999   -5249.5306   -4188.8306   0.81276012 
   77200    46.057452    1364.8867    1078.4013    -5251.745   -4173.3437   0.81276012 
   77300    45.703082    1344.9054     1070.104   -5258.1849   -4188.0809   0.81276012 
   77400    46.375301    1392.4358    1085.8435   -5277.9273   -4192.0838   0.81276012 
   77500    46.006875      1330.83    1077.2171   -5296.0694   -4218.8523   0.81276012 
   77600    45.581421    1346.6002    1067.2554   -5271.1331   -4203.8778   0.81276012 
   77700    46.398284    1385.2064    1086.3816   -5270.9068   -4184.5252   0.81276012 
   77800    46.097203    1291.2944     1079.332   -5269.9275   -4190.5955   0.81276012 
   77900    45.828925     1309.733    1073.0505   -5267.6471   -4194.5966   0.81276012 
   78000    46.228813    1343.4309    1082.4136   -5236.8864   -4154.4729   0.81276012 
   78100    46.977064     1353.288    1099.9333   -5253.7148   -4153.7815   0.81276012 
   78200    46.652914    1332.0254    1092.3436   -5254.9131   -4162.5695   0.81276012 
   78300    46.605139    1323.7574     1091.225   -5266.5704   -4175.3454   0.81276012 
   78400    46.453992    1346.1097     1087.686   -5261.3141   -4173.6281   0.81276012 
   78500    47.085667    1362.7531    1102.4762   -5285.5953   -4183.1191   0.81276012 
   78600    45.952481    1297.1239    1075.9435   -5260.4709   -4184.5275   0.81276012 
   78700    46.461288    1327.5314    1087.8568   -5248.5364   -4160.6796   0.81276012 
   78800    45.522765    1311.1085     1065.882   -5264.1583   -4198.2763   0.81276012 
   78900    46.081964    1377.5303    1078.9752   -5279.2188   -4200.2436   0.81276012 
   79000    46.737561    1326.1662    1094.3255   -5273.9543   -4179.6287   0.81276012 
   79100    46.920767    1283.0006    1098.6152   -5271.7539   -4173.1388   0.81276012 
   79200    46.425714    1327.4954    1087.0239   -5266.9683   -4179.9444   0.81276012 
   79300    46.179936    1236.9814    1081.2692   -5269.6302   -4188.3611   0.81276012 
   79400    46.309138    1317.0883    1084.2943   -5289.0354    -4204.741   0.81276012 
   79500     47.35671    1299.8764    1108.8225    -5289.153   -4180.3305   0.81276012 
   79600    46.118024    1310.1804    1079.8195    -5270.874   -4191.0545   0.81276012 
   79700    46.644503     1303.694    1092.1467   -5296.3918   -4204.2451   0.81276012 
   79800    46.748114    1272.5291    1094.5726   -5283.8087    -4189.236   0.81276012 
   79900    46.869872    1356.1051    1097.4235   -5289.1926   -4191.7691   0.81276012 
   80000     47.23698    1294.0579    1106.0191   -5283.1926   -4177.1735   0.81276012 
   80100    46.136801    1271.1293    1080.2592   -5300.9885   -4220.7293   0.81276012 
   80200    47.091498    1318.8133    1102.6127   -5276.6478   -4174.0351   0.81276012 
   80300     47.00211     1355.607    1100.5198   -5290.3371   -4189.8174   0.81276012 
   80400    46.758082    1356.2575     1094.806   -5265.8066   -4171.0005   0.81276012 
   80500    47.776651     1348.296    1118.6551     -5290.25   -4171.5949   0.81276012 
   80600    46.123444    1290.5235    1079.9465   -5279.8151   -4199.8687   0.81276012 
   80700    47.474435    1286.7148    1111.5789   -5293.8294   -4182.2505   0.81276012 
   80800    47.507625     1271.157     1112.356   -5280.6442   -4168.2882   0.81276012 
   80900    46.750051    1282.4309     1094.618   -5297.4311   -4202.8131   0.81276012 
   81000    47.371963    1308.9918    1109.1796   -5292.7726    -4183.593   0.81276012 
   81100    46.860247    1291.6632    1097.1981   -5285.7138   -4188.5156   0.81276012 
   81200    47.319542    1276.7844    1107.9522   -5297.6805   -4189.7283   0.81276012 
   81300    47.720386    1317.2373    1117.3377   -5306.9174   -4189.5798   0.81276012 
   81400     46.59572    1276.8641    1091.0044   -5272.0195    -4181.015   0.81276012 
   81500     47.81877    1276.6669    1119.6413   -5284.2247   -4164.5834   0.81276012 
   81600    46.796062    1284.6637    1095.6953   -5304.2147   -4208.5194   0.81276012 
   81700     47.94327    1256.1603    1122.5563   -5279.7926   -4157.2363   0.81276012 
   81800    47.151657    1291.9992    1104.0213   -5293.8749   -4189.8536   0.81276012 
   81900     48.14054    1226.9777    1127.1753   -5319.1898   -4192.0145   0.81276012 
   82000    46.877795    1301.6194     1097.609   -5301.8584   -4204.2494   0.81276012 
   82100    47.563167    1235.9128    1113.6565   -5297.9168   -4184.2603   0.81276012 
   82200     47.04265    1233.5649     1101.469   -5325.9396   -4224.4706   0.81276012 
   82300    48.890527    1261.1036    1144.7356   -5340.7104   -4195.9748   0.81276012 
   82400    48.295167     1250.553    1130.7957   -5311.9216   -4181.1259   0.81276012 
   82500    47.609753    1270.4339    1114.7473     -5323.93   -4209.1827   0.81276012 
   82600    47.900136    1285.9249    1121.5464   -5329.9533    -4208.407   0.81276012 
   82700    46.819563     1206.472    1096.2456   -5322.3615   -4226.1159   0.81276012 
   82800    47.730883    1249.2945    1117.5835   -5294.5648   -4176.9813   0.81276012 
   82900     48.01942    1188.2427    1124.3393   -5295.7076   -4171.3683   0.81276012 
   83000    48.500564     1247.476     1135.605   -5318.9173   -4183.3123   0.81276012 
   83100    47.790782    1215.9922    1118.9859   -5338.4016   -4219.4157   0.81276012 
   83200    47.389783    1294.1833    1109.5968   -5339.2091   -4229.6122   0.81276012 
   83300    46.739681    1204.8683    1094.3752   -5341.8018   -4247.4267   0.81276012 
   83400    46.527456    1223.7357    1089.4061   -5342.0969   -4252.6908   0.81276012 
   83500    47.217825    1252.0169    1105.5706   -5328.5442   -4222.9736   0.81276012 
   83600    47.494475    1240.3545    1112.0481   -5341.9622   -4229.9141   0.81276012 
   83700    47.206728    1266.1046    1105.3107   -5338.7204   -4233.4097   0.81276012 
   83800    47.857087     1252.165    1120.5384   -5336.4389   -4215.9005   0.81276012 
   83900    47.307187    1208.5593    1107.6629   -5328.5832   -4220.9203   0.81276012 
   84000    48.323515    1131.8386    1131.4595   -5331.5348   -4200.0753   0.81276012 
   84100    47.387948    1277.0062    1109.5539   -5314.1813   -4204.6274   0.81276012 
   84200    48.678381    1282.0946    1139.7684   -5328.1967   -4188.4283   0.81276012 
   84300    48.314106    1296.4925    1131.2392   -5313.1606   -4181.9214   0.81276012 
   84400     48.24989     1175.879    1129.7356   -5322.3659   -4192.6303   0.81276012 
   84500     48.43813    1233.6492    1134.1431   -5349.8255   -4215.6824   0.81276012 
   84600    48.559568    1205.8241    1136.9865   -5349.0181   -4212.0316   0.81276012 
   84700     48.93441    1282.2984    1145.7631   -5344.6896   -4198.9265   0.81276012 
   84800    47.674138    1170.1529    1116.2548   -5369.1357   -4252.8809   0.81276012 
   84900    47.143577    1238.5596    1103.8321   -5352.7996   -4248.9675   0.81276012 
   85000    48.669928    1221.0172    1139.5705   -5332.2901   -4192.7197   0.81276012 
   85100     48.76203    1236.8589     1141.727   -5341.4904   -4199.7634   0.81276012 
   85200    49.524705    1212.7545    1159.5845   -5350.0672   -4190.4827   0.81276012 
   85300      49.1336    1252.6554     1150.427   -5356.9828   -4206.5557   0.81276012 
   85400    47.979895    1184.8437    1123.4139   -5378.4546   -4255.0408   0.81276012 
   85500    47.935766    1270.9052    1122.3806    -5373.495   -4251.1143   0.81276012 
   85600    49.495504    1154.6869    1158.9008   -5371.4318   -4212.5311   0.81276012 
   85700    47.995983    1257.2654    1123.7906   -5365.2247   -4241.4341   0.81276012 
   85800    48.750713    1164.9983     1141.462   -5364.4354   -4222.9734   0.81276012 
   85900    49.367225    1195.1449    1155.8972    -5343.119   -4187.2218   0.81276012 
[...]
  179300    320.72252    398.59586    7509.4814   -819.09218    6690.3893   0.81276012 
  179400    318.67026    565.21258    7461.4294   -852.42516    6609.0042   0.81276012 
  179500    317.25281     554.4423    7428.2408   -598.91701    6829.3237   0.81276012 
  179600    325.85874    497.51809    7629.7422   -588.22688    7041.5153   0.81276012 
  179700    324.30031    430.30899    7593.2528   -726.08805    6867.1648   0.81276012 
  179800    329.11459    387.56964    7705.9755   -789.27578    6916.6997   0.81276012 
  179900    322.75243    470.91608    7557.0102   -651.81315     6905.197   0.81276012 
  180000    325.53186    402.92047    7622.0887   -611.71354    7010.3751   0.81276012 
  180100    322.54212    439.39769     7552.086   -730.51123    6821.5747   0.81276012 
  180200    314.12486     488.5557    7355.0021     -772.835    6582.1671   0.81276012 
  180300    321.59105    521.71548    7529.8175   -566.78023    6963.0373   0.81276012 
  180400     325.3659    445.94478    7618.2028   -712.68259    6905.5202   0.81276012 
  180500    322.52717    464.50136    7551.7359   -756.23913    6795.4967   0.81276012 
  180600    325.26669    392.01893    7615.8798    -697.0602    6918.8196   0.81276012 
  180700     318.7566     570.0343    7463.4508   -627.32265    6836.1281   0.81276012 
  180800    322.72683    513.40106    7556.4109   -680.53489     6875.876   0.81276012 
  180900    323.59391    569.56222    7576.7129   -629.53998    6947.1729   0.81276012 
  181000    317.08095    591.95782    7424.2168    -632.0103    6792.2065   0.81276012 
  181100    317.72008    452.86161    7439.1814    -764.4349    6674.7465   0.81276012 
  181200    318.26196    455.84355    7451.8692   -716.04625    6735.8229   0.81276012 
  181300    324.04963    525.38686    7587.3832   -745.02423     6842.359   0.81276012 
  181400    323.03616    513.03162    7563.6536   -805.91944    6757.7342   0.81276012 
  181500    324.48903    533.51784    7597.6715   -735.90369    6861.7678   0.81276012 
  181600     322.2506    389.07105    7545.2604    -717.5347    6827.7257   0.81276012 
  181700    320.71239    640.04147    7509.2443   -788.88404    6720.3602   0.81276012 
  181800    322.41262    457.15331    7549.0538   -632.79931    6916.2544   0.81276012 
  181900     326.0822    540.50895    7634.9745   -796.02492    6838.9496   0.81276012 
  182000    321.39575    588.41213    7525.2446   -757.73947    6767.5052   0.81276012 
  182100    325.46141    479.88226    7620.4391   -682.26877    6938.1703   0.81276012 
  182200    327.66701    508.73803    7672.0815   -612.62337    7059.4581   0.81276012 
  182300     320.3852    406.76566    7501.5833   -526.51344    6975.0699   0.81276012 
  182400    323.48283    686.79167    7574.1121   -651.75507    6922.3571   0.81276012 
  182500    317.70291    532.12177    7438.7794   -741.24858    6697.5308   0.81276012 
  182600    323.94468     585.9425    7584.9259   -708.29639    6876.6295   0.81276012 
  182700    324.40693    462.21964    7595.7492   -650.43121     6945.318   0.81276012 
  182800    329.38485    597.75956    7712.3034   -483.65486    7228.6486   0.81276012 
  182900    323.57976     483.6686    7576.3816   -601.56627    6974.8153   0.81276012 
  183000    328.73217    417.32638    7697.0214   -557.02941     7139.992   0.81276012 
  183100    316.67436    406.83648    7414.6967   -724.31348    6690.3832   0.81276012 
  183200    321.53899     434.6795    7528.5985   -737.89818    6790.7003   0.81276012 
  183300    325.03811    406.59375    7610.5278   -562.15823    7048.3696   0.81276012 
  183400     329.2906    387.61801    7710.0967   -613.74374     7096.353   0.81276012 
  183500    326.21539    399.88979    7638.0929   -658.13057    6979.9624   0.81276012 
  183600    327.48049    604.80722    7667.7144   -719.25506    6948.4593   0.81276012 
  183700    326.89708    464.54131    7654.0541   -571.32151    7082.7326   0.81276012 
  183800    321.10676    454.34145    7518.4781   -648.98143    6869.4966   0.81276012 
  183900    326.79156    469.68017    7651.5834   -608.27878    7043.3047   0.81276012 
  184000    326.82251    474.32576    7652.3083   -623.61226     7028.696   0.81276012 
  184100    328.23176    661.70086    7685.3046   -646.03827    7039.2664   0.81276012 
  184200    329.33949    523.22518    7711.2415    -631.1378    7080.1037   0.81276012 
  184300    325.66612    483.73965    7625.2321   -660.56455    6964.6676   0.81276012 
  184400    322.05403    652.60816    7540.6578   -584.87258    6955.7852   0.81276012 
  184500    328.17047    484.01233    7683.8697   -714.15014    6969.7196   0.81276012 
  184600    330.28581    494.35305    7733.3987   -700.91224    7032.4865   0.81276012 
  184700    330.60827    517.16306    7740.9489   -544.26639    7196.6826   0.81276012 
  184800    324.92815     609.7241    7607.9532   -485.84014    7122.1131   0.81276012 
  184900    330.05903    587.91975    7728.0889   -600.26055    7127.8283   0.81276012 
  185000    325.71152    602.88954    7626.2952   -612.96708    7013.3281   0.81276012 
  185100    323.77993     327.6128    7581.0683   -727.57269    6853.4956   0.81276012 
  185200    322.93855     488.3333    7561.3682   -597.17178    6964.1964   0.81276012 
  185300    324.05706    422.43929    7587.5572   -566.40282    7021.1543   0.81276012 
  185400    319.51229    492.39865    7481.1448   -747.05062    6734.0942   0.81276012 
  185500    321.15695    468.23982    7519.6534   -748.55015    6771.1032   0.81276012 
  185600    321.16977    345.87623    7519.9533   -692.57857    6827.3748   0.81276012 
  185700    324.84955    508.10674    7606.1129   -703.97672    6902.1362   0.81276012 
  185800    324.89392     399.2761    7607.1517   -578.15713    7028.9946   0.81276012 
  185900    328.84798    509.38499    7699.7331    -651.1596    7048.5735   0.81276012 
  186000    331.84152     592.7177    7769.8246   -679.84393    7089.9807   0.81276012 
  186100    326.86008    678.16454    7653.1879   -547.04937    7106.1386   0.81276012 
  186200     328.3144    619.66634    7687.2397   -596.07533    7091.1644   0.81276012 
  186300    325.19413    512.41058     7614.181    -623.0434    6991.1376   0.81276012 
  186400    325.98984    343.10417    7632.8117   -593.64149    7039.1702   0.81276012 
  186500    323.64735    640.49529    7577.9641   -682.59586    6895.3682   0.81276012 
  186600    324.72705    522.61761    7603.2446   -645.02775    6958.2168   0.81276012 
  186700    331.50371     588.4178    7761.9149   -671.95512    7089.9598   0.81276012 
  186800    330.77821    504.05635    7744.9279   -556.34537    7188.5826   0.81276012 
  186900    326.37449    456.45271    7641.8181   -531.55784    7110.2603   0.81276012 
  187000    329.84531    457.13878    7723.0848   -696.28096    7026.8038   0.81276012 
  187100    331.75895    587.06536    7767.8913   -619.65705    7148.2343   0.81276012 
  187200    327.25254    602.34895    7662.3769   -590.11007    7072.2669   0.81276012 
  187300    322.45238    423.37742    7549.9848   -657.67666    6892.3081   0.81276012 
  187400    326.84024    596.74047    7652.7233   -612.56137     7040.162   0.81276012 
  187500    328.29879    418.39798    7686.8743   -527.26385    7159.6104   0.81276012 
  187600    324.65669    520.81903     7601.597   -500.71879    7100.8782   0.81276012 
  187700    324.66713    431.54828    7601.8415   -537.77645    7064.0651   0.81276012 
  187800    333.12661     513.9426    7799.9141   -589.53915     7210.375   0.81276012 
  187900    328.20813    593.28346    7684.7514   -544.70372    7140.0477   0.81276012 
  188000    330.09353    552.81064    7728.8966   -462.94436    7265.9522   0.81276012 
  188100    329.96235    523.35551    7725.8251   -499.82899    7225.9961   0.81276012 
  188200    325.75783     513.5169    7627.3795   -602.60153     7024.778   0.81276012 
  188300    329.30811    406.06251    7710.5067   -579.76141    7130.7453   0.81276012 
  188400    333.29993    395.86141    7803.9721   -519.87759    7284.0945   0.81276012 
  188500     331.6834    540.49974    7766.1225   -522.71016    7243.4123   0.81276012 
  188600    331.23124    431.35791    7755.5353    -528.0644    7227.4709   0.81276012 
  188700    328.98904     277.4569    7703.0359   -535.37363    7167.6623   0.81276012 
  188800    338.20698    263.89433    7918.8671    -519.5768    7399.2903   0.81276012 
  188900    330.72834     519.1019    7743.7604   -414.21853    7329.5419   0.81276012 
  189000    329.64939    411.12229    7718.4974   -470.43058    7248.0668   0.81276012 
  189100    328.02416    438.33375     7680.444   -579.81025    7100.6337   0.81276012 
  189200    329.61857    516.52939    7717.7758   -595.37762    7122.3982   0.81276012 
  189300    328.25757    610.51307    7685.9091   -557.55513     7128.354   0.81276012 
  189400    330.57028    444.86139    7740.0595    -642.4374    7097.6221   0.81276012 
  189500    330.88184    450.01251    7747.3545   -625.37205    7121.9824   0.81276012 
  189600    327.19435    424.58924    7661.0145   -503.94602    7157.0685   0.81276012 
  189700    336.00954    604.69245    7867.4157   -592.07384    7275.3419   0.81276012 
  189800    332.67941    597.27832    7789.4432   -402.69817    7386.7451   0.81276012 
  189900    327.82997    435.21148    7675.8972   -553.73325     7122.164   0.81276012 
  190000    335.16196    564.08062    7847.5703   -514.03127     7333.539   0.81276012 
  190100     327.9108    443.20981    7677.7898   -333.67086    7344.1189   0.81276012 
  190200    332.54092    479.12886    7786.2007   -528.88336    7257.3173   0.81276012 
  190300    336.27176    411.77052    7873.5554   -562.10159    7311.4538   0.81276012 
  190400    333.89356    499.10165    7817.8717   -408.16451    7409.7071   0.81276012 
  190500    334.07262    501.71323    7822.0641   -491.29039    7330.7737   0.81276012 
  190600    332.06383    540.30567    7775.0299   -374.61609    7400.4138   0.81276012 
  190700    331.40655    488.19813    7759.6401   -592.23367    7167.4065   0.81276012 
  190800     335.4861    669.72327    7855.1598   -656.32676    7198.8331   0.81276012 
  190900    331.51294    526.24846    7762.1312   -597.41418     7164.717   0.81276012 
  191000     330.8807    398.34742    7747.3278   -530.03729    7217.2905   0.81276012 
  191100    325.78528    530.49266    7628.0221   -496.18431    7131.8378   0.81276012 
  191200    331.23486     410.5225    7755.6201   -553.63013    7201.9899   0.81276012 
  191300    328.98092     616.9809    7702.8458   -512.47692    7190.3688   0.81276012 
  191400    328.33781    468.65032    7687.7877   -437.57909    7250.2086   0.81276012 
  191500    333.18489    623.78032    7801.2786   -568.95013    7232.3285   0.81276012 
  191600    333.83686    422.31163     7816.544   -379.67107     7436.873   0.81276012 
  191700    332.94899    479.29752    7795.7552   -551.42953    7244.3257   0.81276012 
  191800    331.01972    411.42202    7750.5828   -503.52653    7247.0563   0.81276012 
  191900    336.05415    290.06637    7868.4603   -536.95321    7331.5071   0.81276012 
  192000    328.50422     390.0724    7691.6841   -494.59357    7197.0906   0.81276012 
  192100    328.47099    296.76559    7690.9061   -440.77938    7250.1267   0.81276012 
  192200    329.47751    454.27485     7714.473   -563.56087    7150.9122   0.81276012 
  192300    334.10861    344.46601    7822.9069   -455.64241    7367.2645   0.81276012 
  192400    334.58591    397.11693    7834.0825   -447.37072    7386.7118   0.81276012 
  192500    334.36499    350.97886    7828.9098   -490.12006    7338.7898   0.81276012 
  192600     331.8524     369.5307    7770.0794   -521.81152    7248.2679   0.81276012 
  192700    330.96224    605.59795    7749.2369   -540.03698    7209.1999   0.81276012 
  192800      329.179    392.22759    7707.4836   -494.34965    7213.1339   0.81276012 
  192900    328.14094    433.41744    7683.1783   -565.87396    7117.3043   0.81276012 
  193000    331.70055    354.35721    7766.5239   -591.27651    7175.2474   0.81276012 
  193100    331.33363    492.10156    7757.9328   -629.28104    7128.6518   0.81276012 
  193200    331.49097    366.58432    7761.6168   -537.42738    7224.1894   0.81276012 
  193300    332.49576    431.22973    7785.1432   -501.75182    7283.3914   0.81276012 
  193400    335.71335    543.08537    7860.4807   -591.43553    7269.0451   0.81276012 
  193500    333.46068    429.57844    7807.7359   -539.34816    7268.3878   0.81276012 
  193600    332.10664    320.92187    7776.0322    -634.4044    7141.6278   0.81276012 
  193700    328.31998     433.8563    7687.3702   -514.22629    7173.1439   0.81276012 
  193800    335.23922    493.38971    7849.3793   -610.37644    7239.0029   0.81276012 
  193900    336.49041    603.33687    7878.6749   -572.88225    7305.7926   0.81276012 
  194000    331.37489    400.65497    7758.8989   -434.09837    7324.8006   0.81276012 
  194100    332.54108    483.37723    7786.2043   -491.80412    7294.4002   0.81276012 
  194200    332.50675    401.84412    7785.4005   -514.20367    7271.1968   0.81276012 
  194300    339.33828    512.56305    7945.3557   -516.30308    7429.0526   0.81276012 
  194400     338.7456    386.61935    7931.4785   -334.06808    7597.4104   0.81276012 
  194500    337.41303    374.14198    7900.2775   -316.56045     7583.717   0.81276012 
  194600    338.17166    490.35507    7918.0402   -488.16034    7429.8798   0.81276012 
  194700    331.97053    609.94769    7772.8454   -599.53897    7173.3064   0.81276012 
  194800    333.26256    610.99816    7803.0971   -482.68591    7320.4112   0.81276012 
  194900    335.68112    317.91606    7859.7261   -331.97372    7527.7524   0.81276012 
  195000    337.45995    338.86388    7901.3759   -393.11771    7508.2582   0.81276012 
  195100    337.95043      477.021    7912.8602   -477.52984    7435.3303   0.81276012 
  195200      335.542    504.11029    7856.4687   -421.51575     7434.953   0.81276012 
  195300    338.29216    553.97891    7920.8616   -516.11147    7404.7501   0.81276012 
  195400    337.58573     443.2157    7904.3209   -401.15628    7503.1647   0.81276012 
  195500    336.76342    393.11529    7885.0672   -341.90005    7543.1672   0.81276012 
  195600    332.88229    391.76951    7794.1934   -309.05963    7485.1338   0.81276012 
  195700    336.97376    651.51874    7889.9922   -514.35417    7375.6381   0.81276012 
  195800    331.63332    383.71119    7764.9498   -393.98769    7370.9621   0.81276012 
  195900    336.42461    365.02846    7877.1343   -367.84783    7509.2865   0.81276012 
  196000    339.11635    330.12752    7940.1593   -453.32642    7486.8329   0.81276012 
  196100    337.10973     390.7797    7893.1759   -425.22265    7467.9533   0.81276012 
  196200    332.09694    306.78124    7775.8051   -501.86695    7273.9381   0.81276012 
  196300    328.55967    208.68226    7692.9825   -436.76921    7256.2133   0.81276012 
  196400     338.4004    458.51018     7923.396   -435.49935    7487.8966   0.81276012 
  196500    335.37923    391.74536    7852.6575   -540.05446    7312.6031   0.81276012 
  196600    333.14513     499.9351    7800.3477   -453.27891    7347.0688   0.81276012 
  196700    332.94996    261.25349     7795.778   -380.94843    7414.8296   0.81276012 
  196800    333.43451    358.47932    7807.1233   -351.03806    7456.0852   0.81276012 
  196900    339.64527    486.49967    7952.5437   -411.95211    7540.5916   0.81276012 
  197000    338.58536    466.85611    7927.7267   -533.78435    7393.9423   0.81276012 
  197100    332.66914    459.27076    7789.2028   -405.27864    7383.9242   0.81276012 
  197200    338.13634    462.92961    7917.2131   -531.62244    7385.5907   0.81276012 
  197300    338.22283    449.48492    7919.2382   -439.14009    7480.0981   0.81276012 
  197400    339.19808    411.12705    7942.0729   -482.87605    7459.1969   0.81276012 
  197500    340.27017    351.05867    7967.1752   -467.28653    7499.8887   0.81276012 
  197600    336.51384    420.55656    7879.2234   -447.86208    7431.3614   0.81276012 
  197700    326.54036    376.38608    7645.7018   -274.46485     7371.237   0.81276012 
  197800    334.88782    442.73993    7841.1514   -366.62684    7474.5246   0.81276012 
  197900    336.61066     454.9449    7881.4906   -487.34547    7394.1451   0.81276012 
  198000    336.88733    443.08402    7887.9684   -475.30616    7412.6623   0.81276012 
  198100    336.24525    434.40149    7872.9346   -557.02693    7315.9077   0.81276012 
  198200    337.05452    319.30906    7891.8831   -540.00614     7351.877   0.81276012 
  198300    337.88439    421.06268    7911.3138    -575.1954    7336.1184   0.81276012 
  198400    332.04957    510.29142    7774.6958   -377.16533    7397.5305   0.81276012 
  198500    336.24846    348.09595      7873.01   -261.83407    7611.1759   0.81276012 
  198600    337.80222    214.16308    7909.3901   -448.02983    7461.3603   0.81276012 
  198700    336.75079     398.3223    7884.7715   -457.67063    7427.1009   0.81276012 
  198800    338.77519    365.57618    7932.1713   -323.10878    7609.0626   0.81276012 
  198900    332.78755    285.92149    7791.9752   -558.68925     7233.286   0.81276012 
  199000    338.01204       480.52    7914.3028   -597.97211    7316.3306   0.81276012 
  199100     334.4307    371.40887    7830.4484   -363.82041     7466.628   0.81276012 
  199200    337.22737    368.15517    7895.9304   -447.30646    7448.6239   0.81276012 
  199300    343.65128    425.18854    8046.3413   -469.01351    7577.3278   0.81276012 
  199400    343.19482    488.47167    8035.6538   -456.14503    7579.5088   0.81276012 
  199500    339.57185    253.04416    7950.8246   -494.20329    7456.6213   0.81276012 
  199600    333.35361    375.46595    7805.2291   -482.99942    7322.2297   0.81276012 
  199700    337.73025    277.36991    7907.7048   -483.82812    7423.8767   0.81276012 
  199800    337.55853     467.9052    7903.6843   -562.62416    7341.0601   0.81276012 
  199900    340.78327    434.70918    7979.1892   -622.87058    7356.3186   0.81276012 
  200000    332.52821    414.56419     7785.903    -472.1524    7313.7506   0.81276012 
  200100     335.9049    322.65683    7864.9657   -521.81793    7343.1477   0.81276012 
Loop time of 944.164 on 12 procs for 100000 steps with 7856 atoms

Performance: 9.151 ns/day, 2.623 hours/ns, 105.914 timesteps/s
99.5% CPU use with 12 MPI tasks x 1 OpenMP threads

MPI task timing breakdown:
Section |  min time  |  avg time  |  max time  |%varavg| %total
---------------------------------------------------------------
Pair    | 647.24     | 664.63     | 690.82     |  59.6 | 70.39
Bond    | 30.18      | 31.474     | 33.52      |  17.8 |  3.33
Kspace  | 193.54     | 217.56     | 234.06     |  97.6 | 23.04
Neigh   | 2.0786     | 2.0788     | 2.0791     |   0.0 |  0.22
Comm    | 14.833     | 18.688     | 22.159     |  54.4 |  1.98
Output  | 0.043129   | 0.055784   | 0.13945    |  10.7 |  0.01
Modify  | 5.7497     | 6.0074     | 6.1565     |   6.9 |  0.64
Other   |            | 3.667      |            |       |  0.39

Nlocal:    654.667 ave 675 max 629 min
Histogram: 2 0 0 0 1 3 3 1 0 2
Nghost:    5246.83 ave 5284 max 5218 min
Histogram: 1 3 1 2 0 1 1 1 0 2
Neighs:    613248 ave 634172 max 581005 min
Histogram: 1 1 0 1 1 1 1 2 2 2

Total # of neighbors = 7358971
Ave neighs/atom = 936.733
Ave special neighs/atom = 7.49491
Neighbor list builds = 139
Dangerous builds = 0
System init for write_restart ...
Ewald initialization ...
WARNING: Using 12-bit tables for long-range coulomb (../kspace.cpp:321)
  G vector (1/distance) = 0.130214
  estimated absolute RMS force accuracy = 0.0385551
  estimated relative force accuracy = 0.000116108
  KSpace vectors: actual max1d max3d = 472 7 1687
                  kxmax kymax kzmax  = 6 5 7
Total wall time: 0:31:52
