LAMMPS (31 Mar 2017)
  using 1 OpenMP thread(s) per MPI task
Reading data file ...
  orthogonal box = (0 0 0) to (81.6 70.667 100)
  4 by 3 by 1 MPI processor grid
  reading atoms ...
  7856 atoms
  scanning bonds ...
  1 = max bonds/atom
  scanning angles ...
  6 = max angles/atom
  scanning dihedrals ...
  9 = max dihedrals/atom
  reading bonds ...
  6400 bonds
  reading angles ...
  11520 angles
  reading dihedrals ...
  11520 dihedrals
Finding 1-2 1-3 1-4 neighbors ...
  special bond factors lj:   0          0          0.5       
  special bond factors coul: 0          0          0.5       
  4 = max # of 1-2 neighbors
  6 = max # of 1-3 neighbors
  12 = max # of 1-4 neighbors
  14 = max # of special neighbors
1200 atoms in group gold
256 atoms in group thiol
6656 atoms in group dynamic
Ewald initialization ...
WARNING: System is not charge neutral, net charge = 1.024e-05 (../kspace.cpp:302)
WARNING: Using 12-bit tables for long-range coulomb (../kspace.cpp:321)
  G vector (1/distance) = 0.130214
  estimated absolute RMS force accuracy = 0.0385551
  estimated relative force accuracy = 0.000116108
  KSpace vectors: actual max1d max3d = 472 7 1687
                  kxmax kymax kzmax  = 6 5 7
Neighbor list info ...
  update every 1 steps, delay 0 steps, check yes
  max neighbors/atom: 30000, page size: 300000
  master list distance cutoff = 22
  ghost atom cutoff = 22
  binsize = 11, bins = 8 7 10
  3 neighbor lists, perpetual/occasional/extra = 3 0 0
  (1) pair lj/cut/coul/long, perpetual, skip from (3)
      attributes: half, newton on
      pair build: skip
      stencil: none
      bin: none
  (2) pair morse, perpetual, skip from (3)
      attributes: half, newton on
      pair build: skip
      stencil: none
      bin: none
  (3) neighbor class addition, perpetual
      attributes: half, newton on
      pair build: half/bin/newton
      stencil: half/bin/3d/newton
      bin: standard
Setting up cg style minimization ...
  Unit style    : real
Per MPI rank memory allocation (min/avg/max) = 31.97 | 31.98 | 31.98 Mbytes
Step Temp Press KinEng PotEng TotEng Density 
       0            0   -640.39642            0   -3002.5041   -3002.5041   0.81276012 
     100            0   -447.25406            0   -9103.5734   -9103.5734   0.81276012 
Loop time of 1.95529 on 12 procs for 100 steps with 7856 atoms

99.0% CPU use with 12 MPI tasks x 1 OpenMP threads

Minimization stats:
  Stopping criterion = max iterations
  Energy initial, next-to-last, final = 
         -3002.5040535     -9094.82631347     -9103.57344683
  Force two-norm initial, final = 993.558 95.9479
  Force max component initial, final = 29.1841 5.06384
  Final line search alpha, max atom move = 0.00438562 0.0222081
  Iterations, force evaluations = 100 195

MPI task timing breakdown:
Section |  min time  |  avg time  |  max time  |%varavg| %total
---------------------------------------------------------------
Pair    | 1.3229     | 1.4101     | 1.4795     |   4.3 | 72.12
Bond    | 0.060161   | 0.064453   | 0.067666   |   0.7 |  3.30
Kspace  | 0.36787    | 0.43141    | 0.51401    |   7.0 | 22.06
Neigh   | 0          | 0          | 0          |   0.0 |  0.00
Comm    | 0.024767   | 0.038125   | 0.060574   |   4.8 |  1.95
Output  | 3.4094e-05 | 4.2339e-05 | 0.00013208 |   0.0 |  0.00
Modify  | 0.00021434 | 0.00034426 | 0.00040627 |   0.0 |  0.02
Other   |            | 0.01084    |            |       |  0.55

Nlocal:    654.667 ave 674 max 641 min
Histogram: 2 2 0 3 1 0 1 2 0 1
Nghost:    5273.83 ave 5316 max 5228 min
Histogram: 1 2 0 1 1 3 1 0 0 3
Neighs:    594190 ave 614268 max 572809 min
Histogram: 2 0 2 0 1 1 2 1 2 1

Total # of neighbors = 7130282
Ave neighs/atom = 907.622
Ave special neighs/atom = 7.49491
Neighbor list builds = 0
Dangerous builds = 0
Ewald initialization ...
WARNING: Using 12-bit tables for long-range coulomb (../kspace.cpp:321)
  G vector (1/distance) = 0.130214
  estimated absolute RMS force accuracy = 0.0385551
  estimated relative force accuracy = 0.000116108
  KSpace vectors: actual max1d max3d = 472 7 1687
                  kxmax kymax kzmax  = 6 5 7
Setting up Verlet run ...
  Unit style    : real
  Current step  : 100
  Time step     : 1
Per MPI rank memory allocation (min/avg/max) = 30.86 | 30.87 | 30.87 Mbytes
Step Temp Press KinEng PotEng TotEng Density 
     100            0   -447.25406            0   -9103.5734   -9103.5734   0.81276012 
     200    1.6669414   -491.12011    39.030205   -9202.4036   -9163.3734   0.81276012 
     300    1.7527185   -539.57988    41.038613   -9262.7582   -9221.7196   0.81276012 
     400    1.5944667   -567.99187    37.333263   -9297.9364   -9260.6032   0.81276012 
     500    1.5023828   -576.22012    35.177185    -9317.372   -9282.1948   0.81276012 
     600    1.5149304    -586.1653     35.47098   -9331.5054   -9296.0344   0.81276012 
     700    1.6544582   -586.79062     38.73792   -9339.3115   -9300.5736   0.81276012 
     800    1.8050667   -598.03768    42.264305   -9342.3359   -9300.0716   0.81276012 
     900    2.0436902   -599.09402    47.851501   -9342.1922   -9294.3407   0.81276012 
    1000    2.1698245   -603.30588    50.804841   -9338.7874   -9287.9826   0.81276012 
    1100    2.3998707    -599.4517    56.191203   -9335.0814   -9278.8902   0.81276012 
    1200    2.6623859   -611.57888    62.337803   -9332.9538    -9270.616   0.81276012 
    1300     2.896638   -599.28495    67.822644   -9328.6134   -9260.7907   0.81276012 
    1400    3.1294227   -603.79596    73.273127   -9323.3505   -9250.0774   0.81276012 
    1500    3.3896198   -620.72463    79.365449   -9318.7011   -9239.3357   0.81276012 
    1600    3.6092555   -614.91305    84.508058   -9316.1346   -9231.6265   0.81276012 
    1700    3.8193163   -612.13614    89.426476   -9312.5816   -9223.1551   0.81276012 
    1800    4.1684754   -605.99331    97.601778   -9308.0013   -9210.3996   0.81276012 
    1900     4.367084   -606.29679    102.25205   -9303.8886   -9201.6365   0.81276012 
    2000    4.6608933   -604.02399    109.13138   -9299.9328   -9190.8014   0.81276012 
    2100    4.8083038   -614.04774    112.58289   -9294.0858   -9181.5029   0.81276012 
    2200    5.0282542   -600.12105    117.73287   -9292.6993   -9174.9665   0.81276012 
    2300    5.3845901   -602.91184    126.07621   -9289.6407   -9163.5645   0.81276012 
    2400    5.6065534   -613.58332    131.27332   -9287.6214    -9156.348   0.81276012 
    2500    5.8125956   -592.21046    136.09764   -9280.7813   -9144.6836   0.81276012 
    2600    6.1001601   -597.98763    142.83075   -9280.5745   -9137.7437   0.81276012 
    2700    6.4042509   -603.59995    149.95081   -9274.9037   -9124.9529   0.81276012 
    2800    6.6173817   -620.28151    154.94112   -9270.3567   -9115.4156   0.81276012 
    2900    6.8591888   -628.04492    160.60285   -9269.2095   -9108.6066   0.81276012 
    3000    7.1122134   -637.29962    166.52723   -9265.4402    -9098.913   0.81276012 
    3100    7.2304727   -571.48689    169.29619   -9261.7091   -9092.4129   0.81276012 
    3200    7.4432296   -620.72763    174.27774   -9261.0791   -9086.8014   0.81276012 
    3300    7.7582944   -587.37169    181.65474   -9257.1775   -9075.5228   0.81276012 
    3400    7.8779286   -640.05525    184.45589   -9250.7627   -9066.3068   0.81276012 
    3500    8.2030711   -604.98103    192.06886   -9249.3737   -9057.3048   0.81276012 
    3600    8.3539504   -596.06269    195.60159   -9248.1444   -9052.5428   0.81276012 
    3700    8.5743047   -594.89289    200.76102   -9247.9157   -9047.1547   0.81276012 
    3800    8.7918375   -603.64398     205.8544   -9244.9307   -9039.0763   0.81276012 
    3900    8.9291099   -579.79994    209.06853   -9241.9427   -9032.8742   0.81276012 
    4000    9.1199301   -572.18816    213.53644   -9240.2081   -9026.6717   0.81276012 
    4100    9.3958415   -564.13589     219.9967    -9237.157   -9017.1603   0.81276012 
    4200    9.2913495     -557.126     217.5501   -9234.4173   -9016.8672   0.81276012 
    4300    9.5649605   -582.88504     223.9565   -9234.4425    -9010.486   0.81276012 
    4400    9.8747144   -606.14721    231.20916   -9230.9761   -8999.7669   0.81276012 
    4500    9.9848425   -570.46975    233.78773   -9230.2138   -8996.4261   0.81276012 
    4600    10.143822   -569.84298    237.51013   -9237.5481    -9000.038   0.81276012 
    4700    10.212086   -550.82704    239.10846   -9229.6261   -8990.5176   0.81276012 
    4800    10.556118    -560.5305    247.16372   -9231.0196   -8983.8559   0.81276012 
    4900    10.541448   -554.21837    246.82023   -9227.3287   -8980.5085   0.81276012 
    5000    10.763289   -570.96934    252.01448   -9225.0479   -8973.0334   0.81276012 
    5100    10.936449   -593.64729    256.06889   -9229.7299    -8973.661   0.81276012 
    5200    11.157355    -561.5919    261.24124   -9220.1478   -8958.9066   0.81276012 
    5300    11.246751   -547.46693    263.33439   -9221.9237   -8958.5893   0.81276012 
    5400    11.276287   -525.58545    264.02596   -9223.1146   -8959.0886   0.81276012 
    5500    11.485638   -548.80975    268.92774    -9225.283   -8956.3552   0.81276012 
    5600    11.479516   -534.47272    268.78441   -9219.7942   -8951.0098   0.81276012 
    5700    11.718204   -574.82541    274.37312    -9217.019   -8942.6459   0.81276012 
    5800     11.82975   -528.42652    276.98488   -9218.2911   -8941.3063   0.81276012 
    5900    11.977542   -527.65574    280.44532   -9220.4145   -8939.9692   0.81276012 
    6000    12.134955   -546.90159    284.13103   -9218.1647   -8934.0337   0.81276012 
    6100    12.176889   -532.38409    285.11287    -9217.881   -8932.7681   0.81276012 
    6200     12.28014   -535.20421    287.53042   -9214.7693   -8927.2389   0.81276012 
    6300    12.417475   -522.81727    290.74602   -9216.1192   -8925.3732   0.81276012 
    6400    12.466565   -551.99639    291.89542   -9212.9189   -8921.0235   0.81276012 
    6500    12.969173   -527.53708    303.66364   -9214.1787   -8910.5151   0.81276012 
    6600    12.838891   -549.79487    300.61317   -9210.0429   -8909.4297   0.81276012 
    6700      13.0039   -542.13153    304.47673   -9210.4577    -8905.981   0.81276012 
    6800    13.118213   -547.71475    307.15329   -9207.8824   -8900.7291   0.81276012 
    6900    13.220238   -538.74384    309.54213   -9201.3894   -8891.8472   0.81276012 
    7000    13.499616   -542.38633    316.08356   -9201.7489   -8885.6653   0.81276012 
    7100    13.424236   -547.75079    314.31859   -9207.9367   -8893.6182   0.81276012 
    7200    13.438777   -510.28996    314.65906   -9204.8671    -8890.208   0.81276012 
    7300     13.67486   -531.51797    320.18676   -9202.5109   -8882.3241   0.81276012 
    7400    13.828761   -509.37285    323.79024    -9204.383   -8880.5928   0.81276012 
    7500    13.772108   -504.78338    322.46375   -9206.3785   -8883.9147   0.81276012 
    7600    13.851604   -504.63238    324.32511   -9200.6322   -8876.3071   0.81276012 
    7700    13.858038   -491.09592    324.47576   -9192.7812   -8868.3054   0.81276012 
    7800     14.05315   -467.23041    329.04415   -9196.2663   -8867.2222   0.81276012 
    7900    14.231856   -504.27113    333.22842   -9196.6178   -8863.3894   0.81276012 
    8000    14.270027    -496.5229    334.12216   -9193.8445   -8859.7223   0.81276012 
    8100    14.488337   -483.88506    339.23373   -9190.9812   -8851.7474   0.81276012 
    8200    14.456274   -467.50919    338.48301   -9187.4544   -8848.9714   0.81276012 
    8300    14.691264   -489.56578    343.98512   -9192.3454   -8848.3603   0.81276012 
    8400    14.756553   -463.35027     345.5138   -9188.8403   -8843.3265   0.81276012 
    8500    14.936146    -489.7063    349.71886   -9187.3157   -8837.5969   0.81276012 
    8600    14.951318   -487.97142    350.07409   -9187.9459   -8837.8718   0.81276012 
    8700    15.280673   -507.20855    357.78571   -9188.6359   -8830.8502   0.81276012 
    8800    15.031407   -462.00616     351.9493   -9184.4309   -8832.4816   0.81276012 
    8900    15.206288    -476.4104    356.04402   -9188.8733   -8832.8293   0.81276012 
    9000    15.355749     -471.275    359.54355   -9183.8622   -8824.3187   0.81276012 
    9100    15.336013   -480.83513    359.08143   -9191.0839   -8832.0025   0.81276012 
    9200    15.567628   -475.06585    364.50453   -9189.4013   -8824.8968   0.81276012 
    9300    15.751914   -459.52637    368.81946   -9188.4566   -8819.6371   0.81276012 
    9400    15.790821   -461.86452    369.73043    -9177.802   -8808.0715   0.81276012 
    9500    15.644494   -472.26047     366.3043   -9180.3148   -8814.0105   0.81276012 
    9600    15.948345   -449.44055    373.41874   -9177.6504   -8804.2317   0.81276012 
    9700    16.054759   -478.74358    375.91034   -9175.7793   -8799.8689   0.81276012 
    9800    16.318207   -446.61984     382.0788   -9176.9644   -8794.8856   0.81276012 
    9900    16.116073   -413.37411    377.34596   -9175.5411   -8798.1952   0.81276012 
   10000    16.252993   -458.20087    380.55185   -9172.3268    -8791.775   0.81276012 
   10100    16.422035   -475.63691    384.50985   -9169.2283   -8784.7184   0.81276012 
   10200    16.395353   -470.29373     383.8851   -9177.6508   -8793.7657   0.81276012 
   10300    16.522772   -449.26214    386.86853   -9172.9437   -8786.0752   0.81276012 
   10400    16.702447   -467.76032    391.07549   -9169.0578   -8777.9823   0.81276012 
   10500    16.617887   -446.45362    389.09557   -9169.7582   -8780.6626   0.81276012 
   10600    16.723005    -456.0872    391.55685   -9165.2224   -8773.6656   0.81276012 
   10700    16.560932   -440.98868    387.76201   -9169.4169   -8781.6549   0.81276012 
   10800    16.796885   -498.39162    393.28668   -9162.3464   -8769.0597   0.81276012 
   10900    16.681965   -413.74618    390.59592   -9161.9166   -8771.3207   0.81276012 
   11000    16.801487   -405.59608    393.39443   -9162.6515   -8769.2571   0.81276012 
   11100    17.108078      -413.23    400.57303    -9159.676    -8759.103   0.81276012 
   11200    16.783529   -444.66937    392.97397    -9155.356    -8762.382   0.81276012 
   11300    17.154481   -475.34691    401.65954   -9151.1868   -8749.5272   0.81276012 
   11400    17.347037   -428.07072    406.16809   -9160.7407   -8754.5726   0.81276012 
   11500    17.739133   -450.05764    415.34872   -9157.2001   -8741.8514   0.81276012 
   11600    17.412702   -450.46496    407.70558   -9151.4512   -8743.7456   0.81276012 
   11700    17.575159   -422.97338     411.5094   -9152.2152   -8740.7058   0.81276012 
   11800    17.632384   -418.35383    412.84929   -9155.0454   -8742.1961   0.81276012 
   11900    17.575068   -432.53571    411.50727   -9157.8178   -8746.3105   0.81276012 
   12000    17.986619    -480.1459    421.14343   -9152.0029   -8730.8595   0.81276012 
   12100    18.029143   -466.24618     422.1391   -9151.3627   -8729.2236   0.81276012 
   12200    17.931115   -425.72687    419.84383   -9153.9348   -8734.0909   0.81276012 
   12300    18.039509   -442.90795     422.3818   -9147.5908    -8725.209   0.81276012 
   12400    18.288906   -457.66323    428.22126   -9148.6118   -8720.3905   0.81276012 
   12500    18.176936   -407.44425    425.59956   -9150.1196     -8724.52   0.81276012 
   12600    18.063716   -470.02371     422.9486   -9155.0106    -8732.062   0.81276012 
   12700    18.008223   -438.26847    421.64926    -9148.024   -8726.3747   0.81276012 
   12800    18.203669   -481.04568    426.22548    -9142.911   -8716.6855   0.81276012 
   12900    18.518027   -439.90316    433.58595   -9137.0992   -8703.5133   0.81276012 
   13000    18.527119   -433.62181    433.79883   -9140.5862   -8706.7874   0.81276012 
   13100    18.569847   -426.49324    434.79928   -9139.6126   -8704.8133   0.81276012 
   13200    19.001411   -420.67261    444.90403   -9143.7764   -8698.8724   0.81276012 
   13300    18.886786   -416.30153    442.22017   -9148.7279   -8706.5077   0.81276012 
   13400    18.742552   -416.57742    438.84305   -9144.0561   -8705.2131   0.81276012 
   13500    18.695107   -431.83733    437.73216   -9141.9593   -8704.2272   0.81276012 
   13600    18.488124   -395.53921    432.88579   -9144.6483   -8711.7625   0.81276012 
   13700    18.790078   -435.53606    439.95583   -9134.3415   -8694.3856   0.81276012 
   13800    18.749745     -423.885    439.01146   -9130.9808   -8691.9694   0.81276012 
   13900    19.271371    -427.7425    451.22496   -9132.5995   -8681.3746   0.81276012 
   14000    19.112975   -435.30794    447.51622    -9132.771   -8685.2548   0.81276012 
   14100    19.389753   -449.37224    453.99679   -9136.7339   -8682.7372   0.81276012 
   14200     19.50099    -437.5122    456.60131   -9127.1089   -8670.5076   0.81276012 
   14300    19.599873   -435.30708    458.91659   -9124.5376    -8665.621   0.81276012 
   14400    19.376487   -403.89246    453.68616   -9124.9366   -8671.2504   0.81276012 
   14500    19.751544   -410.69146    462.46784   -9119.4497   -8656.9819   0.81276012 
   14600    19.573282   -405.76632    458.29396   -9118.3273   -8660.0333   0.81276012 
   14700     19.60986   -475.32694    459.15042   -9116.9321   -8657.7817   0.81276012 
   14800     19.70105   -442.14996    461.28557   -9121.6752   -8660.3896   0.81276012 
   14900    19.956989   -417.08263    467.27818   -9118.4326   -8651.1544   0.81276012 
   15000    19.695965   -385.73736     461.1665    -9113.455   -8652.2885   0.81276012 
   15100    19.929633   -397.75023    466.63767   -9107.7724   -8641.1347   0.81276012 
   15200    19.902876   -448.67289    466.01118   -9114.1265   -8648.1153   0.81276012 
   15300    20.335076   -427.13174    476.13081   -9121.5737   -8645.4429   0.81276012 
   15400    20.166498   -421.32571    472.18369    -9118.075   -8645.8913   0.81276012 
   15500    20.138398    -404.9792    471.52576   -9119.0312   -8647.5055   0.81276012 
   15600     20.36361   -398.57844    476.79893   -9119.3572   -8642.5582   0.81276012 
   15700    20.672894   -420.13838    484.04057   -9115.8354   -8631.7948   0.81276012 
   15800    20.658214    -400.0429    483.69686   -9121.8316   -8638.1347   0.81276012 
   15900    20.980871   -377.25069    491.25164    -9111.617   -8620.3653   0.81276012 
   16000    20.803033   -380.61842    487.08768   -9109.6697    -8622.582   0.81276012 
   16100    20.725278    -345.9645     485.2671   -9103.5081    -8618.241   0.81276012 
   16200    20.775843   -392.83086    486.45104   -9103.0168   -8616.5658   0.81276012 
   16300    20.785333   -394.47963    486.67326   -9109.0121   -8622.3388   0.81276012 
   16400     20.84944   -411.50047    488.17427   -9106.0611   -8617.8868   0.81276012 
   16500    20.899628   -339.98568    489.34939   -9099.2358   -8609.8864   0.81276012 
   16600    20.943018   -376.65968    490.36533   -9101.1198   -8610.7544   0.81276012 
   16700    21.082512   -412.88688    493.63147   -9091.7696   -8598.1381   0.81276012 
   16800    21.009792    -365.5808    491.92879   -9099.9429   -8608.0141   0.81276012 
   16900     21.23156   -388.93598    497.12134   -9094.6797   -8597.5584   0.81276012 
   17000    21.251067    -395.8079    497.57806   -9101.1954   -8603.6173   0.81276012 
   17100    21.148109    -359.2417    495.16737   -9095.0991   -8599.9317   0.81276012 
   17200    21.432648   -396.83197    501.82966     -9092.38   -8590.5504   0.81276012 
   17300    21.675481   -384.12261    507.51542   -9083.1963   -8575.6809   0.81276012 
   17400    21.465106   -385.85474    502.58963   -9090.6066    -8588.017   0.81276012 
   17500    21.762431    -361.6165    509.55128   -9087.3319   -8577.7806   0.81276012 
   17600     21.55489   -400.08823    504.69186   -9086.3089    -8581.617   0.81276012 
   17700    21.621715   -384.64658    506.25651     -9087.53   -8581.2735   0.81276012 
   17800    21.563493   -379.77769    504.89328   -9073.5071   -8568.6138   0.81276012 
   17900    21.861564   -394.34689     511.8724   -9080.8517   -8568.9793   0.81276012 
   18000    21.796279   -395.24436    510.34381   -9079.4748    -8569.131   0.81276012 
   18100    22.212965   -389.08681     520.1002   -9079.1651   -8559.0649   0.81276012 
   18200    22.001611   -419.18898     515.1515   -9077.6096   -8562.4581   0.81276012 
   18300    21.950075   -426.74377    513.94482   -9068.2983   -8554.3535   0.81276012 
   18400    22.088026   -428.65391    517.17484   -9070.9339    -8553.759   0.81276012 
   18500    22.043488   -362.45547    516.13202   -9074.6505   -8558.5185   0.81276012 
   18600    22.061433   -435.55397    516.55219   -9082.7617   -8566.2095   0.81276012 
   18700    21.740612   -402.84176    509.04041   -9086.7491   -8577.7087   0.81276012 
   18800    22.285925   -411.78122     521.8085   -9071.8746   -8550.0661   0.81276012 
   18900    22.712475    -389.9163    531.79586   -9081.8475   -8550.0517   0.81276012 
   19000    22.623726    -344.1505    529.71787   -9069.8302   -8540.1124   0.81276012 
   19100    22.648129   -413.73736    530.28924   -9073.1012    -8542.812   0.81276012 
   19200    22.569922   -375.31554    528.45808    -9081.822    -8553.364   0.81276012 
   19300    22.446795   -380.93634    525.57516   -9079.0834   -8553.5083   0.81276012 
   19400    22.472862    -390.4359     526.1855   -9080.7168   -8554.5313   0.81276012 
   19500    22.801451   -362.70761    533.87918   -9083.6997   -8549.8205   0.81276012 
   19600    22.733656   -364.51302     532.2918   -9069.0639   -8536.7721   0.81276012 
   19700    22.577967   -403.79921    528.64645   -9071.5834    -8542.937   0.81276012 
   19800    22.767805   -352.03026    533.09137   -9066.2952   -8533.2038   0.81276012 
   19900    22.940952    -403.5921    537.14548   -9067.7518   -8530.6064   0.81276012 
   20000    22.971827    -396.8152     537.8684   -9069.8788   -8532.0104   0.81276012 
   20100    22.929355   -373.41728    536.87395   -9057.2672   -8520.3932   0.81276012 
   20200    22.884963   -372.36068    535.83455     -9053.66   -8517.8254   0.81276012 
   20300    22.972292   -377.25643    537.87929   -9066.4596   -8528.5803   0.81276012 
   20400    23.434728   -398.35557    548.70688   -9067.1846   -8518.4778   0.81276012 
   20500    23.374751   -383.51532    547.30256   -9072.7551   -8525.4525   0.81276012 
   20600    23.367458    -376.8541    547.13182   -9065.8459   -8518.7141   0.81276012 
   20700    23.706813   -373.73786    555.07755   -9057.1283   -8502.0508   0.81276012 
   20800    23.294412   -368.61812     545.4215   -9043.8567   -8498.4352   0.81276012 
   20900     23.93375   -380.89023    560.39111   -9065.2947   -8504.9036   0.81276012 
   21000    23.636153   -356.87333    553.42309   -9056.7529   -8503.3299   0.81276012 
   21100    23.686067   -406.89874     554.5918   -9058.3562   -8503.7644   0.81276012 
   21200    23.651203   -366.38849    553.77548   -9043.1345    -8489.359   0.81276012 
   21300    23.797756   -323.26953    557.20692   -9053.1551   -8495.9482   0.81276012 
   21400     23.76618   -376.01717    556.46759    -9045.869   -8489.4014   0.81276012 
   21500    24.054557   -395.69951    563.21972   -9046.0848   -8482.8651   0.81276012 
   21600    23.787164   -384.99729     556.9589   -9053.0997   -8496.1408   0.81276012 
   21700    23.943687   -358.70373    560.62377   -9049.3622   -8488.7385   0.81276012 
   21800    24.114899   -354.45968    564.63259   -9044.4916    -8479.859   0.81276012 
   21900    24.277717   -369.48884    568.44486   -9040.8259    -8472.381   0.81276012 
   22000    24.062401   -390.86434    563.40339   -9048.1293   -8484.7259   0.81276012 
   22100    23.889197   -393.09917    559.34794   -9049.8025   -8490.4546   0.81276012 
   22200    24.421765    -384.0167    571.81762   -9051.8717   -8480.0541   0.81276012 
   22300    23.768087   -404.57471    556.51224   -9059.0641   -8502.5519   0.81276012 
   22400    23.715276   -352.40854     555.2757   -9056.4146   -8501.1389   0.81276012 
   22500    24.787403   -402.88894    580.37878   -9048.8722   -8468.4934   0.81276012 
   22600    24.281572   -390.49996    568.53512   -9050.6985   -8482.1634   0.81276012 
   22700      24.8065   -357.15193    580.82591   -9045.0909    -8464.265   0.81276012 
   22800    25.038562   -392.98271    586.25948   -9045.9426   -8459.6831   0.81276012 
   22900    24.281719   -334.69072    568.53855    -9040.605   -8472.0665   0.81276012 
   23000    24.972552   -409.84763     584.7139   -9055.2581   -8470.5442   0.81276012 
   23100    24.581065   -324.17176    575.54751   -9042.5442   -8466.9967   0.81276012 
   23200    24.572577   -371.40005    575.34877    -9045.165   -8469.8162   0.81276012 
   23300    24.461281   -364.21066    572.74288   -9052.9946   -8480.2517   0.81276012 
   23400    24.727276   -398.79778    578.97095   -9049.9402   -8470.9693   0.81276012 
   23500    24.777072   -421.19916    580.13689   -9039.5261   -8459.3892   0.81276012 
   23600    25.338904   -434.91061    593.29177   -9050.6122   -8457.3204   0.81276012 
   23700    25.229779   -394.86459    590.73669   -9046.3552   -8455.6185   0.81276012 
   23800    25.430548   -407.20532    595.43753   -9033.7283   -8438.2907   0.81276012 
   23900    24.823817   -416.03533    581.23137   -9027.1983   -8445.9669   0.81276012 
   24000    25.017587   -365.77921    585.76836   -9027.8166   -8442.0483   0.81276012 
   24100    25.707992   -424.65438    601.93368   -9031.7037     -8429.77   0.81276012 
   24200    25.406738   -414.59819    594.88003   -9028.0916   -8433.2115   0.81276012 
   24300    25.136536   -358.76488    588.55347   -9017.0639   -8428.5104   0.81276012 
   24400    25.769992   -342.90779    603.38538   -9019.7845   -8416.3991   0.81276012 
   24500    25.619382   -416.64729    599.85895    -9020.356    -8420.497   0.81276012 
   24600    25.206529   -332.99399     590.1923   -9016.1818   -8425.9895   0.81276012 
   24700    25.380821   -383.61268    594.27322   -9019.4926   -8425.2194   0.81276012 
   24800     25.87266   -399.55004    605.78926    -9028.085   -8422.2958   0.81276012 
   24900    25.852611   -445.39825    605.31983   -9039.4675   -8434.1476   0.81276012 
   25000     25.74481   -411.11003    602.79575   -9029.9147   -8427.1189   0.81276012 
   25100    25.773837   -381.80727    603.47539   -9027.8623   -8424.3869   0.81276012 
   25200    26.022617   -381.71748     609.3004   -9021.0441   -8411.7437   0.81276012 
   25300    25.994222   -382.84416    608.63555   -9015.3301   -8406.6946   0.81276012 
   25400    26.276485   -356.09775    615.24452   -9009.5246   -8394.2801   0.81276012 
   25500    26.234063   -354.59652    614.25124   -9018.5325   -8404.2812   0.81276012 
   25600    25.887352   -427.50266    606.13326    -9020.567   -8414.4337   0.81276012 
   25700    25.701574   -396.05979    601.78341   -9011.4525    -8409.669   0.81276012 
   25800    26.005265   -364.43474    608.89411   -9015.8587   -8406.9646   0.81276012 
   25900    26.005537   -350.45449    608.90049   -9016.0102   -8407.1097   0.81276012 
   26000    26.407308   -390.19021    618.30765   -9024.3104   -8406.0027   0.81276012 
   26100    25.736006   -354.11268     602.5896   -9010.3881   -8407.7985   0.81276012 
   26200    26.477436    -384.0871    619.94965   -9018.3448   -8398.3952   0.81276012 
   26300    26.299022    -349.9526     615.7722   -9007.0762    -8391.304   0.81276012 
   26400    26.353982   -409.52785    617.05906   -9019.2979   -8402.2388   0.81276012 
   26500    26.399171   -421.55083    618.11713   -9017.0029   -8398.8858   0.81276012 
   26600    26.469188   -364.57027    619.75653    -9013.184   -8393.4275   0.81276012 
   26700     26.49562   -416.26507    620.37542   -9022.9977   -8402.6223   0.81276012 
   26800    26.580639   -373.12697    622.36607   -9023.3974   -8401.0313   0.81276012 
   26900    26.425032   -384.23952    618.72264   -8999.4038   -8380.6811   0.81276012 
   27000    26.681981   -402.58444    624.73892   -9008.2154   -8383.4765   0.81276012 
   27100    27.003876   -355.30561    632.27585   -9003.7563   -8371.4805   0.81276012 
   27200    26.624041   -382.83653    623.38231   -9011.0923     -8387.71   0.81276012 
   27300    26.509491   -328.57208    620.70019   -9008.4411   -8387.7409   0.81276012 
   27400    26.787721   -387.50068    627.21474    -9013.423   -8386.2083   0.81276012 
   27500    26.383986   -379.42639    617.76159   -9003.0174   -8385.2558   0.81276012 
   27600    27.240192   -402.22798    637.80903   -9007.0022   -8369.1932   0.81276012 
   27700    27.010994    -407.5377    632.44252   -9009.8925     -8377.45   0.81276012 
   27800    26.739532   -384.21649    626.08643   -8998.3951   -8372.3087   0.81276012 
   27900    26.589036   -408.74869    622.56267   -9003.8816   -8381.3189   0.81276012 
   28000    27.446454   -371.03942    642.63849    -9008.756   -8366.1175   0.81276012 
   28100    27.195361   -390.31968    636.75934   -9002.6528   -8365.8934   0.81276012 
   28200    27.617259   -377.86049    646.63776   -8999.5523   -8352.9146   0.81276012 
   28300    27.055336   -368.38359    633.48076   -8999.3883   -8365.9076   0.81276012 
   28400    27.008295   -423.73432    632.37933   -8994.1566   -8361.7772   0.81276012 
   28500    27.338719    -369.6807    640.11596   -8991.8884   -8351.7725   0.81276012 
   28600    27.385362   -350.27757    641.20806   -8997.1127   -8355.9046   0.81276012 
   28700    27.422554   -373.34206    642.07889   -8993.1818   -8351.1029   0.81276012 
   28800    27.668886   -351.93973    647.84656   -9005.6427   -8357.7961   0.81276012 
   28900    27.054878   -441.62444    633.47004   -8989.7698   -8356.2998   0.81276012 
   29000    27.594398   -423.74801    646.10248   -8994.0604   -8347.9579   0.81276012 
   29100    27.526069   -397.08093    644.50262   -8992.2381   -8347.7355   0.81276012 
   29200    28.284917   -317.79479    662.27049   -8997.0631   -8334.7927   0.81276012 
   29300    27.686968   -384.90438    648.26996   -8996.3525   -8348.0825   0.81276012 
   29400    27.454729   -360.40387    642.83225   -8989.4792    -8346.647   0.81276012 
   29500    27.930091   -386.92772    653.96251   -8989.8695    -8335.907   0.81276012 
   29600    28.020223   -397.04883    656.07286   -8991.7998    -8335.727   0.81276012 
   29700    27.695485   -382.16569    648.46936   -8976.0666   -8327.5972   0.81276012 
   29800    27.866625   -399.28119    652.47648   -8981.5397   -8329.0632   0.81276012 
   29900    27.989354   -383.39225    655.35009   -8971.0072   -8315.6571   0.81276012 
   30000    28.139552   -404.76637    658.86687   -9005.6889    -8346.822   0.81276012 
   30100    27.766793   -394.94524      650.139   -8983.3853   -8333.2463   0.81276012 
   30200    28.634247   -408.18761    670.44979   -8988.9875   -8318.5377   0.81276012 
   30300    28.659668   -425.40821    671.04501   -8985.7039   -8314.6589   0.81276012 
   30400    29.010759   -384.11664    679.26554    -8971.715   -8292.4495   0.81276012 
   30500     28.58432   -372.60839    669.28079   -8973.0378    -8303.757   0.81276012 
   30600    28.234308   -392.51786    661.08552   -8967.3763   -8306.2908   0.81276012 
   30700    28.449022   -377.31817    666.11289   -8979.5816   -8313.4687   0.81276012 
   30800    28.318734    -405.1433    663.06228   -8977.7586   -8314.6963   0.81276012 
   30900    28.251058   -332.65804     661.4777   -8975.0425   -8313.5648   0.81276012 
   31000    28.704789   -388.64903    672.10148   -8990.6273   -8318.5258   0.81276012 
   31100    28.838139   -360.30446    675.22378    -8965.808   -8290.5842   0.81276012 
   31200    28.594836   -410.18498    669.52701   -8981.4661   -8311.9391   0.81276012 
   31300    29.178445   -369.81599    683.19179   -8970.0145   -8286.8227   0.81276012 
   31400    28.606992   -391.02089    669.81163   -8970.6008   -8300.7892   0.81276012 
   31500    28.525619   -390.38404    667.90633   -8975.8069   -8307.9006   0.81276012 
   31600    29.604687   -362.73218    693.17193   -8971.0153   -8277.8434   0.81276012 
   31700    29.453232   -361.08654    689.62572   -8970.3579   -8280.7322   0.81276012 
   31800    29.108316   -335.98625    681.54975   -8972.6805   -8291.1307   0.81276012 
   31900    28.916592   -384.59255     677.0607   -8950.1328   -8273.0721   0.81276012 
   32000    28.836357   -342.94326    675.18205   -8961.3744   -8286.1923   0.81276012 
   32100    28.696705     -379.672     671.9122    -8960.117   -8288.2048   0.81276012 
   32200    29.115355   -383.57124    681.71458   -8979.8152   -8298.1006   0.81276012 
   32300    29.352641   -388.39973    687.27044   -8967.8871   -8280.6167   0.81276012 
   32400    29.340145   -372.40534    686.97788   -8983.4259   -8296.4481   0.81276012 
   32500    28.985919   -349.89533    678.68392   -8972.0799   -8293.3959   0.81276012 
   32600    29.320983   -420.31609     686.5292   -8969.3185   -8282.7893   0.81276012 
   32700    29.471901   -348.40365    690.06283   -8968.2333   -8278.1705   0.81276012 
   32800    29.308081   -360.95135    686.22712   -8964.8919   -8278.6648   0.81276012 
   32900    29.503365   -368.74317    690.79956   -8961.2112   -8270.4117   0.81276012 
   33000     29.24284    -356.0116    684.69953   -8967.5173   -8282.8177   0.81276012 
   33100     29.44888   -339.42266    689.52382   -8965.2028    -8275.679   0.81276012 
   33200    29.505298   -369.51955    690.84482   -8964.5693   -8273.7245   0.81276012 
   33300    29.451493   -360.19514    689.58499   -8950.6623   -8261.0773   0.81276012 
   33400    30.039619   -354.79203    703.35554   -8944.9005   -8241.5449   0.81276012 
   33500    29.571866   -311.84295    692.40346   -8943.5806   -8251.1771   0.81276012 
   33600    29.645146   -384.96421    694.11924   -8958.7078   -8264.5886   0.81276012 
   33700    29.220057   -348.31939    684.16609   -8955.7782   -8271.6121   0.81276012 
   33800    29.509355   -387.99314     690.9398   -8941.0245   -8250.0847   0.81276012 
   33900    29.469304   -374.27571    690.00204   -8964.4447   -8274.4426   0.81276012 
   34000    29.784765   -327.48353    697.38832   -8939.9996   -8242.6112   0.81276012 
   34100    29.883178   -367.19916     699.6926   -8948.3034   -8248.6108   0.81276012 
   34200    29.422507   -347.81717    688.90632   -8956.8599   -8267.9536   0.81276012 
   34300    30.557749   -389.45369    715.48718   -8964.2795   -8248.7924   0.81276012 
   34400    30.230062   -331.74494    707.81462   -8939.9475   -8232.1329   0.81276012 
   34500    30.307047   -371.51733    709.61716   -8946.6391   -8237.0219   0.81276012 
   34600     30.45755   -382.15821    713.14109   -8949.8508   -8236.7097   0.81276012 
   34700    29.572062   -365.26368    692.40803   -8944.2902   -8251.8822   0.81276012 
   34800    30.403781   -407.13263    711.88213   -8938.3488   -8226.4666   0.81276012 
   34900    30.462544   -364.57554    713.25802   -8932.0251   -8218.7671   0.81276012 
   35000     30.07691   -312.26112    704.22867   -8939.0742   -8234.8456   0.81276012 
   35100    30.708263   -348.84316    719.01134   -8948.9614   -8229.9501   0.81276012 
   35200    30.455202   -355.55383     713.0861   -8945.1994   -8232.1133   0.81276012 
   35300    30.791674   -402.84289    720.96436   -8952.8145   -8231.8501   0.81276012 
   35400    30.174048   -401.76602    706.50309   -8948.5244   -8242.0214   0.81276012 
   35500    30.641157   -398.22614    717.44012   -8942.9942   -8225.5541   0.81276012 
   35600    30.518933    -382.4707    714.57833   -8940.7044   -8226.1261   0.81276012 
   35700    31.031686   -350.05347    726.58406   -8944.0445   -8217.4604   0.81276012 
   35800    30.532894   -344.91044    714.90521   -8940.0818   -8225.1766   0.81276012 
   35900    30.467659   -351.72437    713.37778   -8937.9014   -8224.5236   0.81276012 
   36000    31.102574   -337.59409    728.24386   -8944.3412   -8216.0973   0.81276012 
   36100    31.175317   -364.76685    729.94706   -8948.4945   -8218.5475   0.81276012 
   36200    30.759258   -348.04534    720.20536   -8926.5797   -8206.3744   0.81276012 
   36300    31.556733   -353.34717    738.87764   -8930.7169   -8191.8392   0.81276012 
   36400    31.092666    -286.3659    728.01186   -8945.3794   -8217.3675   0.81276012 
   36500    30.610687   -378.95077    716.72668   -8921.5734   -8204.8468   0.81276012 
   36600    31.263549   -317.71754    732.01296   -8923.8079   -8191.7949   0.81276012 
   36700    31.083372   -304.59867    727.79425   -8912.8052    -8185.011   0.81276012 
   36800    31.773036   -321.73828    743.94221   -8935.6932   -8191.7509   0.81276012 
   36900    31.008802   -341.39774    726.04824   -8937.0741   -8211.0259   0.81276012 
   37000    31.444212   -355.54372    736.24304   -8919.3505   -8183.1074   0.81276012 
   37100     31.76116   -318.54593    743.66416   -8930.3417   -8186.6776   0.81276012 
   37200    31.776118   -348.77612    744.01437   -8933.1874    -8189.173   0.81276012 
   37300    30.884093   -311.94775    723.12828   -8930.7722   -8207.6439   0.81276012 
   37400    31.411106   -338.79258    735.46789   -8927.8047   -8192.3369   0.81276012 
   37500    31.390429   -428.07116    734.98375   -8928.9707    -8193.987   0.81276012 
   37600    31.700623   -332.53148    742.24671   -8928.3225   -8186.0758   0.81276012 
   37700    31.948191   -339.90609    748.04334   -8923.9844    -8175.941   0.81276012 
   37800    32.046402   -297.24302    750.34289   -8916.0067   -8165.6638   0.81276012 
   37900    31.828539   -334.91367    745.24179   -8895.9314   -8150.6896   0.81276012 
   38000    31.209519   -338.41667    730.74789   -8919.3363   -8188.5884   0.81276012 
   38100     31.97347   -348.21916    748.63523   -8915.3806   -8166.7454   0.81276012 
   38200    32.799853   -336.00867    767.98439   -8919.3353   -8151.3509   0.81276012 
   38300    32.270326   -332.53866     755.5859   -8923.2413   -8167.6554   0.81276012 
   38400    31.805483    -356.9683    744.70193   -8915.7073   -8171.0054   0.81276012 
   38500    31.991993   -294.16937    749.06894   -8919.9916   -8170.9227   0.81276012 
   38600    32.046991   -353.15111    750.35666   -8928.4214   -8178.0648   0.81276012 
   38700    31.375476   -332.60693    734.63365   -8913.2294   -8178.5957   0.81276012 
   38800    31.740258   -301.60799    743.17474   -8930.5456   -8187.3709   0.81276012 
   38900    31.910017   -299.80255    747.14954   -8907.7524   -8160.6029   0.81276012 
   39000    32.197593   -349.65297    753.88292   -8895.0778   -8141.1949   0.81276012 
   39100    32.307145   -306.50707    756.44799   -8917.1575   -8160.7095   0.81276012 
   39200    32.847125   -324.44424    769.09122   -8887.8291   -8118.7379   0.81276012 
   39300    33.343273   -387.33266    780.70816   -8891.8379   -8111.1297   0.81276012 
   39400    32.420146   -364.25169    759.09382   -8893.1212   -8134.0273   0.81276012 
   39500    32.100535   -340.70345    751.61037    -8902.675   -8151.0646   0.81276012 
   39600    32.514041    -370.7621    761.29232   -8904.5839   -8143.2916   0.81276012 
   39700    32.473876   -316.16517    760.35186   -8895.1514   -8134.7995   0.81276012 
   39800    32.437639   -349.16151     759.5034   -8914.9841   -8155.4807   0.81276012 
   39900    32.304472   -305.78359    756.38539   -8910.7789   -8154.3935   0.81276012 
   40000    32.438933   -340.73256    759.53372   -8902.0534   -8142.5196   0.81276012 
   40100    32.188978   -349.51199     753.6812   -8906.5196   -8152.8384   0.81276012 
   40200    33.125876   -292.14122    775.61797   -8901.1884   -8125.5705   0.81276012 
   40300    32.506853   -308.30095      761.124   -8888.1062   -8126.9822   0.81276012 
   40400    31.853674   -325.51346    745.83031   -8903.1393    -8157.309   0.81276012 
   40500    32.318174   -383.25427    756.70622     -8887.03   -8130.3238   0.81276012 
   40600    32.838741   -309.61102    768.89492   -8892.5351   -8123.6401   0.81276012 
   40700    33.012638   -335.09768    772.96659   -8885.8431   -8112.8765   0.81276012 
   40800    33.317118   -303.65305    780.09576   -8892.9137   -8112.8179   0.81276012 
   40900    32.949113   -390.69773     771.4792   -8892.3861   -8120.9069   0.81276012 
   41000    33.826552   -312.73671    792.02378   -8899.7958    -8107.772   0.81276012 
   41100    32.907065   -368.45958    770.49467   -8892.9505   -8122.4558   0.81276012 
   41200    33.093594   -288.83353    774.86211    -8885.599   -8110.7369   0.81276012 
   41300    32.997565   -267.37765    772.61366   -8894.4856    -8121.872   0.81276012 
   41400     32.29872   -324.50933    756.25072   -8914.9167    -8158.666   0.81276012 
   41500    33.466058   -337.88088    783.58308   -8910.6877   -8127.1046   0.81276012 
   41600     33.51103    -318.9458    784.63606   -8914.4022   -8129.7661   0.81276012 
   41700    33.450036   -347.99467    783.20793   -8914.8431   -8131.6352   0.81276012 
   41800    33.296884    -268.6503    779.62199   -8898.4017   -8118.7797   0.81276012 
   41900    33.231986   -314.98942    778.10246    -8884.957   -8106.8546   0.81276012 
   42000    33.762246   -359.17217    790.51811   -8916.3666   -8125.8485   0.81276012 
   42100    32.647311   -337.34081    764.41271   -8897.4865   -8133.0738   0.81276012 
   42200    32.772944   -303.52548    767.35434   -8902.8765   -8135.5222   0.81276012 
   42300    33.499828   -295.45134    784.37377   -8883.6221   -8099.2483   0.81276012 
   42400      33.5964   -326.21582    786.63495   -8888.2737   -8101.6387   0.81276012 
   42500    33.204916   -361.47229    777.46863   -8882.6477   -8105.1791   0.81276012 
   42600    34.225072   -285.82752    801.35483   -8889.0465   -8087.6917   0.81276012 
   42700    33.785852   -366.15665    791.07081   -8899.5406   -8108.4697   0.81276012 
   42800    33.987197   -308.67179    795.78517   -8886.0351     -8090.25   0.81276012 
   42900    33.803505   -352.16027    791.48415   -8894.5099   -8103.0258   0.81276012 
   43000    33.743439   -334.23406    790.07775   -8882.7957    -8092.718   0.81276012 
   43100      33.7762   -324.41948    790.84482   -8882.2238   -8091.3789   0.81276012 
   43200    33.478501    -328.4831    783.87444   -8880.9762   -8097.1018   0.81276012 
   43300    34.083808   -280.32893    798.04724   -8884.7134   -8086.6661   0.81276012 
   43400     34.11143   -347.13355    798.69398   -8873.9425   -8075.2485   0.81276012 
   43500    33.706198   -274.92677    789.20579   -8868.9142   -8079.7084   0.81276012 
   43600    33.877353   -291.07174    793.21325   -8884.1754   -8090.9621   0.81276012 
   43700    33.633779   -333.66072    787.51016   -8884.2587   -8096.7486   0.81276012 
   43800    33.760823   -330.30423    790.48478   -8869.7119   -8079.2271   0.81276012 
   43900     34.28935   -333.72918    802.85986   -8861.4297   -8058.5699   0.81276012 
   44000    34.847277   -315.73272    815.92331    -8870.852   -8054.9287   0.81276012 
   44100     34.58574   -305.57179    809.79961   -8874.3006    -8064.501   0.81276012 
   44200    34.571267   -317.03552    809.46074   -8875.8519   -8066.3912   0.81276012 
   44300    34.503614   -279.58189    807.87668    -8874.729   -8066.8523   0.81276012 
   44400    34.183537   -340.28024    800.38232   -8896.2793   -8095.8969   0.81276012 
   44500    34.196203   -307.77074    800.67889   -8861.9573   -8061.2784   0.81276012 
   44600    34.180747   -347.20277      800.317   -8879.2412   -8078.9242   0.81276012 
   44700    34.350995   -341.72054    804.30323   -8857.9461   -8053.6429   0.81276012 
   44800     34.48281   -339.02265    807.38959   -8866.7489   -8059.3593   0.81276012 
   44900    34.234919     -339.576    801.58539   -8857.7038   -8056.1184   0.81276012 
   45000    34.323043   -260.38755    803.64875   -8872.7537   -8069.1049   0.81276012 
   45100    34.403634    -331.5671    805.53573    -8869.231   -8063.6953   0.81276012 
   45200    34.781238   -272.03398    814.37706   -8862.3121   -8047.9351   0.81276012 
   45300    34.376217   -317.35725    804.89378   -8859.5412   -8054.6474   0.81276012 
   45400    35.229114   -309.13505    824.86375   -8853.1985   -8028.3347   0.81276012 
   45500    35.039955   -323.49807    820.43473   -8863.6204   -8043.1857   0.81276012 
   45600    34.177942   -304.09885    800.25132   -8864.1014   -8063.8501   0.81276012 
   45700    34.733135   -288.34723    813.25075   -8881.8667   -8068.6159   0.81276012 
   45800    34.388238   -332.33814    805.17524   -8864.9618   -8059.7866   0.81276012 
   45900    34.916601   -280.84657    817.54648   -8864.8671   -8047.3206   0.81276012 
   46000    35.206525   -343.73485    824.33484   -8867.3534   -8043.0185   0.81276012 
   46100    35.085184   -274.81921    821.49373   -8850.8641   -8029.3704   0.81276012 
   46200    35.199164   -243.61671    824.16248   -8849.0695    -8024.907   0.81276012 
   46300    35.190901   -340.74213      823.969   -8867.0204   -8043.0514   0.81276012 
   46400    35.154104   -309.28911    823.10743   -8847.3433   -8024.2358   0.81276012 
   46500    35.509412   -328.68367    831.42672    -8865.695   -8034.2683   0.81276012 
   46600    34.829643   -316.09957    815.51043   -8858.3526   -8042.8422   0.81276012 
   46700    35.614869   -317.07517    833.89591   -8856.6972   -8022.8012   0.81276012 
   46800    35.278453    -292.2177    826.01899   -8857.8522   -8031.8332   0.81276012 
   46900    35.548689   -312.86042    832.34636   -8856.5742   -8024.2278   0.81276012 
   47000    35.347765   -347.58223    827.64187   -8856.8523   -8029.2104   0.81276012 
   47100     35.24531   -323.18734    825.24297    -8847.719   -8022.4761   0.81276012 
   47200    35.414113   -314.69872    829.19535   -8846.8642   -8017.6689   0.81276012 
   47300    35.557174   -277.59767    832.54502   -8860.8781    -8028.333   0.81276012 
   47400     35.87457   -267.36839    839.97661   -8856.8433   -8016.8667   0.81276012 
   47500    35.223494     -329.501    824.73215    -8851.081   -8026.3489   0.81276012 
   47600     36.12502   -332.48292    845.84072   -8843.4539   -7997.6131   0.81276012 
   47700    35.857106   -221.80657    839.56771   -8866.7344   -8027.1667   0.81276012 
   47800    35.773842   -352.02638    837.61813   -8853.6934   -8016.0752   0.81276012 
   47900    36.302986   -248.86187    850.00766   -8853.6537   -8003.6461   0.81276012 
   48000     36.17329   -325.46067    846.97092    -8849.791   -8002.8201   0.81276012 
   48100    35.553543   -298.64378    832.46002   -8831.5859   -7999.1258   0.81276012 
   48200    35.714457    -313.4468     836.2277   -8839.7026   -8003.4749   0.81276012 
   48300    36.573291   -306.50909    856.33664   -8855.3005   -7998.9639   0.81276012 
   48400    35.299182   -254.59393    826.50433   -8837.4449   -8010.9406   0.81276012 
   48500    35.632508   -312.97629    834.30891     -8833.36   -7999.0511   0.81276012 
   48600    36.988506   -317.27491    866.05862   -8841.8198   -7975.7612   0.81276012 
   48700    35.728925   -287.93158    836.56645   -8836.3307   -7999.7642   0.81276012 
   48800    36.378181   -308.96122    851.76828   -8828.6947   -7976.9264   0.81276012 
   48900     36.13696   -272.05435    846.12027   -8827.6472   -7981.5269   0.81276012 
   49000    36.630758   -300.03079    857.68221   -8813.9786   -7956.2964   0.81276012 
   49100    36.009945   -348.18442    843.14632   -8843.8295   -8000.6831   0.81276012 
   49200    36.498255   -258.94899    854.57975   -8818.1741   -7963.5944   0.81276012 
   49300     35.93695   -395.45881     841.4372   -8830.7613   -7989.3241   0.81276012 
   49400    36.292104   -365.17023    849.75288   -8835.2249    -7985.472   0.81276012 
   49500    36.573523   -253.74898    856.34208   -8811.5492   -7955.2071   0.81276012 
   49600    36.408405   -298.00545    852.47596   -8826.0013   -7973.5254   0.81276012 
   49700    36.586515   -325.21922    856.64628   -8811.2508   -7954.6045   0.81276012 
   49800    35.967726   -360.88373     842.1578   -8812.4818    -7970.324   0.81276012 
   49900    36.326844   -336.20168    850.56628   -8812.1673    -7961.601   0.81276012 
   50000    36.701738   -286.48488    859.34415   -8813.6522    -7954.308   0.81276012 
   50100    35.955422   -305.68635    841.86969   -8826.1235   -7984.2538   0.81276012 
   50200     36.85145   -380.25036    862.84954   -8839.4893   -7976.6398   0.81276012 
   50300    36.482472   -377.80518    854.21019   -8815.8389   -7961.6287   0.81276012 
   50400    37.007295   -320.56348    866.49855   -8835.0276    -7968.529   0.81276012 
   50500    36.451633   -337.89914    853.48812    -8831.066   -7977.5779   0.81276012 
   50600    35.927463   -307.55473    841.21507    -8837.205   -7995.9899   0.81276012 
   50700    36.138632   -361.31375    846.15943   -8838.5848   -7992.4254   0.81276012 
   50800    36.927203   -343.15644    864.62325    -8830.838   -7966.2148   0.81276012 
   50900    36.752573   -333.46194    860.53442   -8814.6471   -7954.1127   0.81276012 
   51000    36.844518   -327.16902    862.68723   -8828.2696   -7965.5824   0.81276012 
   51100    37.272272   -357.34271    872.70277   -8827.5387   -7954.8359   0.81276012 
   51200    36.579496   -292.23124    856.48193   -8842.8162   -7986.3343   0.81276012 
   51300    37.163883   -257.26959    870.16493   -8819.8671   -7949.7022   0.81276012 
   51400    36.943593   -281.08627    865.00701   -8811.2214   -7946.2144   0.81276012 
   51500    37.205591   -235.47469    871.14148   -8813.7198   -7942.5783   0.81276012 
   51600    37.504501   -333.13637    878.14026   -8815.0965   -7936.9562   0.81276012 
   51700    37.025007   -282.80345    866.91326   -8799.6204   -7932.7071   0.81276012 
   51800    37.263309    -301.4177    872.49292   -8808.1587   -7935.6658   0.81276012 
   51900    37.082919   -300.21443    868.26922   -8810.9659   -7942.6967   0.81276012 
   52000    36.918806   -270.36602    864.42664   -8810.9655   -7946.5389   0.81276012 
   52100     36.48739   -324.63666    854.32534   -8814.2218   -7959.8965   0.81276012 
   52200    35.964875   -296.81625    842.09104   -8808.7189   -7966.6278   0.81276012 
   52300     36.96211   -335.25736    865.44056   -8805.7251   -7940.2845   0.81276012 
   52400    36.807567   -300.99855    861.82205   -8803.3541    -7941.532   0.81276012 
   52500    36.935988   -267.32287    864.82894   -8824.7089     -7959.88   0.81276012 
   52600     37.93038   -337.10218     888.1119   -8809.8608   -7921.7489   0.81276012 
   52700    37.491526   -364.43765    877.83646   -8805.8688   -7928.0324   0.81276012 
   52800    38.259438   -376.10848    895.81653   -8804.6821   -7908.8656   0.81276012 
   52900      37.0971   -305.41262    868.60125   -8788.5028   -7919.9015   0.81276012 
   53000    38.263617   -255.60157    895.91438   -8820.8978   -7924.9834   0.81276012 
   53100    36.999572   -346.20358     866.3177   -8800.4287    -7934.111   0.81276012 
   53200    38.157229   -332.18579    893.42339   -8802.9239   -7909.5005   0.81276012 
   53300    37.732626   -290.03201    883.48164   -8803.0699   -7919.5883   0.81276012 
   53400    37.855125   -277.61678    886.34985   -8802.8067   -7916.4569   0.81276012 
   53500    37.750738   -293.06243     883.9057   -8789.6791   -7905.7734   0.81276012 
   53600    36.875907   -321.84191    863.42217   -8785.1931    -7921.771   0.81276012 
   53700    37.789921   -256.10758    884.82315   -8801.5679   -7916.7447   0.81276012 
   53800    38.364339   -293.44577    898.27272   -8804.0829   -7905.8102   0.81276012 
   53900    37.962235   -312.37602    888.85776   -8799.6127    -7910.755   0.81276012 
   54000    38.012784   -310.95863    890.04133   -8816.8389   -7926.7976   0.81276012 
   54100    37.496171   -281.16821    877.94521   -8798.3392    -7920.394   0.81276012 
   54200    37.933523   -349.88178    888.18548   -8800.3107   -7912.1252   0.81276012 
   54300    38.221214   -356.20774    894.92156    -8797.474   -7902.5525   0.81276012 
   54400     38.55111   -284.80312    902.64582   -8820.2293   -7917.5835   0.81276012 
   54500    37.811531   -284.17674    885.32912   -8794.6118   -7909.2827   0.81276012 
   54600    38.537302   -251.93003    902.32253    -8774.127   -7871.8044   0.81276012 
   54700    37.801697   -325.04998    885.09887   -8795.5914   -7910.4925   0.81276012 
   54800    37.401607   -351.56678    875.73106   -8776.9668   -7901.2357   0.81276012 
   54900    37.957838   -245.47784    888.75479   -8779.7259   -7890.9711   0.81276012 
   55000    38.762513   -262.76303    907.59566   -8793.1083   -7885.5127   0.81276012 
   55100    38.206109   -291.94069    894.56789   -8790.5427   -7895.9748   0.81276012 
   55200    37.936418   -261.89271    888.25326   -8808.2644   -7920.0111   0.81276012 
   55300    38.170561    -254.0861    893.73555   -8777.9349   -7884.1993   0.81276012 
   55400    37.800389    -248.9475    885.06825   -8795.8714   -7910.8031   0.81276012 
   55500    38.860744   -296.14818    909.89569   -8803.7085   -7893.8128   0.81276012 
   55600    38.103434   -270.90033    892.16383   -8780.4707   -7888.3068   0.81276012 
   55700    38.247866   -312.57537    895.54558   -8773.9074   -7878.3619   0.81276012 
   55800    38.015816   -249.64497    890.11231   -8790.2206   -7900.1082   0.81276012 
   55900    38.805045   -269.45323    908.59153   -8778.2107   -7869.6191   0.81276012 
   56000    38.298232    -282.0877    896.72486   -8785.4342   -7888.7093   0.81276012 
   56100    39.063331   -202.78736     914.6391   -8755.3975   -7840.7584   0.81276012 
   56200    39.674199   -293.67636    928.94212   -8767.3574   -7838.4152   0.81276012 
   56300    39.317804   -345.27565    920.59739   -8758.2276   -7837.6303   0.81276012 
   56400    39.567637    -290.5278    926.44707   -8771.4101    -7844.963   0.81276012 
   56500    38.887607   -306.89163    910.52466     -8770.91   -7860.3854   0.81276012 
   56600    39.451584   -352.54291    923.72975    -8796.249   -7872.5192   0.81276012 
   56700    38.730717   -258.37683     906.8512   -8766.9824   -7860.1312   0.81276012 
   56800    39.251864   -240.17944    919.05347   -8764.3316   -7845.2782   0.81276012 
   56900    39.201313   -269.56785    917.86985   -8758.8235   -7840.9537   0.81276012 
   57000     39.25132   -271.51238    919.04072   -8771.0722   -7852.0314   0.81276012 
   57100    38.701209   -292.37399    906.16027   -8772.5351   -7866.3749   0.81276012 
   57200    39.267291   -298.82412    919.41468   -8781.2459   -7861.8312   0.81276012 
   57300    39.352652   -330.59365    921.41334    -8769.178   -7847.7647   0.81276012 
   57400    39.392242    -214.9878     922.3403   -8758.0362   -7835.6959   0.81276012 
   57500    39.301274   -274.21482    920.21036   -8745.6891   -7825.4787   0.81276012 
   57600    38.728085   -293.20901    906.78957   -8757.0895   -7850.2999   0.81276012 
   57700    39.411078   -272.09758    922.78134   -8761.8563   -7839.0749   0.81276012 
   57800    39.582924   -258.31388    926.80498    -8734.835     -7808.03   0.81276012 
   57900    39.198884   -308.59039    917.81298   -8751.7544   -7833.9415   0.81276012 
   58000    39.757995   -256.91877    930.90416   -8762.2067   -7831.3026   0.81276012 
   58100    39.199574   -242.24969    917.82914   -8759.8591     -7842.03   0.81276012 
   58200    39.803631   -318.26842    931.97268   -8774.6763   -7842.7036   0.81276012 
   58300    39.103647   -279.93621    915.58308   -8757.7643   -7842.1812   0.81276012 
   58400    39.793014   -284.21624    931.72409   -8763.7015   -7831.9774   0.81276012 
   58500    39.484263   -279.92917    924.49492   -8751.5397   -7827.0448   0.81276012 
   58600    40.255806    -271.7668    942.56003   -8763.9732   -7821.4132   0.81276012 
   58700    39.056097    -336.6688    914.46972   -8745.9925   -7831.5228   0.81276012 
   58800    39.450057   -253.37789      923.694   -8757.3962   -7833.7023   0.81276012 
   58900    39.371255   -314.54903    921.84891   -8766.1496   -7844.3007   0.81276012 
   59000    39.374901   -267.67506    921.93429   -8732.3798   -7810.4455   0.81276012 
   59100    39.412375   -330.38375     922.8117   -8763.6131   -7840.8014   0.81276012 
   59200    39.843724   -311.76734    932.91144    -8748.432   -7815.5206   0.81276012 
   59300    40.079455   -278.26912     938.4309   -8746.4764   -7808.0455   0.81276012 
   59400    39.987262    -253.1452    936.27226   -8754.3095   -7818.0372   0.81276012 
   59500    40.106811   -230.83796    939.07143   -8742.8162   -7803.7447   0.81276012 
   59600    39.750218   -339.11294    930.72206   -8741.5655   -7810.8434   0.81276012 
   59700    39.737153    -292.9087    930.41615   -8765.4409   -7835.0247   0.81276012 
   59800    39.756448   -307.52995    930.86792   -8745.0494   -7814.1815   0.81276012 
   59900    40.390278   -215.86706    945.70858   -8744.9915   -7799.2829   0.81276012 
   60000    39.820976   -308.54184    932.37881   -8719.4523   -7787.0735   0.81276012 
   60100    40.531731   -264.06167    949.02062   -8743.4453   -7794.4246   0.81276012 
   60200    39.186871    -216.3574     917.5317   -8731.1637    -7813.632   0.81276012 
   60300    40.339754    -246.2976    944.52562   -8743.8467   -7799.3211   0.81276012 
   60400    40.355117   -259.08297    944.88532   -8706.1482   -7761.2629   0.81276012 
   60500    40.960844    -248.6537    959.06797   -8722.7495   -7763.6815   0.81276012 
   60600    40.066777   -269.68808    938.13405   -8748.5302   -7810.3961   0.81276012 
   60700    40.642832   -282.00267    951.62196   -8725.2517   -7773.6298   0.81276012 
   60800    39.986518   -258.98231    936.25484   -8754.5615   -7818.3067   0.81276012 
   60900    40.458039   -219.12392    947.29517   -8729.3444   -7782.0493   0.81276012 
   61000    40.449663   -230.74775    947.09904   -8747.2859   -7800.1868   0.81276012 
   61100    40.536296   -315.78436    949.12749     -8741.59   -7792.4625   0.81276012 
   61200    40.169725   -271.50918    940.54451   -8738.7318   -7798.1873   0.81276012 
   61300    40.795216   -277.27265     955.1899   -8722.7291   -7767.5392   0.81276012 
   61400    40.152551   -208.57251    940.14238   -8729.8124     -7789.67   0.81276012 
   61500    40.725009    -294.1926    953.54608   -8732.8335   -7779.2874   0.81276012 
   61600    40.864097   -238.01532     956.8027   -8740.8893   -7784.0866   0.81276012 
   61700    41.161272    -262.0625    963.76084   -8736.3736   -7772.6128   0.81276012 
   61800    40.810815   -226.61874    955.55516   -8725.4352   -7769.8801   0.81276012 
   61900    40.752838   -301.19725    954.19767   -8723.5812   -7769.3835   0.81276012 
   62000    40.500048   -241.09057    948.27877   -8736.9277   -7788.6489   0.81276012 
   62100    41.210522    -244.7322    964.91399    -8718.726    -7753.812   0.81276012 
   62200    41.347357    -283.2776    968.11789   -8728.7542   -7760.6363   0.81276012 
   62300    41.697434   -313.31666    976.31467    -8716.179   -7739.8643   0.81276012 
   62400     40.62205   -299.47325    951.13535   -8712.2514    -7761.116   0.81276012 
   62500    41.213647   -244.68165    964.98716   -8721.9235   -7756.9364   0.81276012 
   62600    41.204651   -205.39944    964.77652   -8718.8546   -7754.0781   0.81276012 
   62700    41.366869   -189.36622    968.57474   -8724.1793   -7755.6046   0.81276012 
   62800    40.386473   -211.26253    945.61949   -8727.1679   -7781.5484   0.81276012 
   62900    40.994101   -253.42974    959.84666   -8733.6406   -7773.7939   0.81276012 
   63000    41.506731   -326.81706    971.84952   -8749.6118   -7777.7623   0.81276012 
   63100    41.384636   -289.09817    968.99075   -8727.2311   -7758.2403   0.81276012 
   63200    41.246416   -256.35987    965.75444   -8727.3621   -7761.6076   0.81276012 
   63300    41.750342   -266.35763    977.55349   -8742.2998   -7764.7463   0.81276012 
   63400     41.88404   -298.01705    980.68392   -8735.4449    -7754.761   0.81276012 
   63500    41.032119   -276.52086    960.73682   -8727.1542   -7766.4174   0.81276012 
   63600    40.419431   -287.91266    946.39119   -8721.0037   -7774.6125   0.81276012 
   63700    41.256342   -294.61583    965.98683   -8709.8809    -7743.894   0.81276012 
   63800    41.537954   -275.44976    972.58057   -8706.9932   -7734.4126   0.81276012 
   63900    41.919768   -319.45431    981.52046   -8701.6188   -7720.0983   0.81276012 
   64000    41.677449   -265.08366    975.84674   -8715.1151   -7739.2683   0.81276012 
   64100    42.250998   -268.79051    989.27598    -8708.943    -7719.667   0.81276012 
   64200    41.420673   -268.53252    969.83452   -8717.8608   -7748.0263   0.81276012 
   64300    41.745102   -294.34397     977.4308   -8716.2483   -7738.8174   0.81276012 
   64400    41.145991   -260.77757    963.40305   -8717.7524   -7754.3493   0.81276012 
   64500    41.589753   -290.90985    973.79341   -8729.8367   -7756.0433   0.81276012 
   64600    41.418886   -211.14615     969.7927   -8714.0525   -7744.2598   0.81276012 
   64700    40.677133   -282.38305    952.42508    -8700.661   -7748.2359   0.81276012 
   64800    41.615279   -262.39611     974.3911   -8703.1525   -7728.7614   0.81276012 
   64900    41.155525   -337.36619    963.62628    -8706.162   -7742.5357   0.81276012 
   65000    41.541024   -293.29013    972.65246   -8714.1791   -7741.5266   0.81276012 
   65100    42.167265   -269.23728    987.31544   -8701.7632   -7714.4477   0.81276012 
   65200    41.080803   -315.22002    961.87673   -8702.1267     -7740.25   0.81276012 
   65300    42.332272   -284.78864    991.17894   -8727.7855   -7736.6065   0.81276012 
   65400    41.364295   -288.18307    968.51449   -8698.9799   -7730.4654   0.81276012 
   65500    41.759034   -242.76656    977.75699   -8707.3915   -7729.6346   0.81276012 
   65600    41.932776   -326.37428    981.82504   -8709.9177   -7728.0927   0.81276012 
   65700    42.258419   -309.65207    989.44972   -8704.2255   -7714.7757   0.81276012 
   65800    41.727848    -284.9819     977.0268   -8719.9232   -7742.8964   0.81276012 
   65900    42.777779   -258.89281    1001.6102   -8714.7493   -7713.1392   0.81276012 
   66000    42.545648    -266.2817    996.17499   -8690.4293   -7694.2543   0.81276012 
   66100    42.419579   -250.35488    993.22317   -8682.0936   -7688.8705   0.81276012 
   66200    42.049946   -321.89406     984.5685    -8709.374   -7724.8055   0.81276012 
   66300    41.734354   -245.69908    977.17914   -8704.6676   -7727.4884   0.81276012 
   66400    41.329528   -325.88544    967.70044   -8691.7432   -7724.0428   0.81276012 
   66500    41.858398   -289.93196    980.08353   -8711.5236   -7731.4401   0.81276012 
   66600    42.476006   -220.72269    994.54437   -8702.6905   -7708.1461   0.81276012 
   66700    42.250046   -290.68387    989.25369   -8673.4236   -7684.1699   0.81276012 
   66800    41.711394   -260.92636    976.64154   -8676.2227   -7699.5812   0.81276012 
   66900    42.614991   -282.19449    997.79862   -8681.9228   -7684.1241   0.81276012 
   67000     42.78589   -254.32287    1001.8001    -8675.378   -7673.5779   0.81276012 
   67100    41.970671   -358.79091    982.71232   -8672.2326   -7689.5203   0.81276012 
   67200    42.110216   -222.66603    985.97967   -8667.3487   -7681.3691   0.81276012 
   67300    43.419724   -232.44429    1016.6408   -8678.7283   -7662.0875   0.81276012 
   67400    42.851769   -355.65352    1003.3426   -8689.8403   -7686.4977   0.81276012 
   67500    43.437914   -273.13414    1017.0667   -8679.9949   -7662.9282   0.81276012 
   67600    42.480853   -241.79272    994.65785   -8670.7402   -7676.0824   0.81276012 
   67700    42.688006   -262.83381    999.50819     -8684.18   -7684.6718   0.81276012 
   67800    42.519801   -224.22457    995.56979   -8697.6805   -7702.1107   0.81276012 
   67900    43.190446   -230.13591    1011.2725   -8680.7611   -7669.4887   0.81276012 
   68000    43.170295   -250.46487    1010.8006   -8693.6467   -7682.8461   0.81276012 
   68100    43.420228    -197.8132    1016.6526   -8685.9869   -7669.3342   0.81276012 
   68200    42.838591   -293.93304     1003.034   -8664.5227   -7661.4886   0.81276012 
   68300    41.026237   -274.62145     960.5991    -8702.362   -7741.7629   0.81276012 
   68400    42.797375   -296.60681     1002.069   -8681.7162   -7679.6472   0.81276012 
   68500    43.035189    -250.2027    1007.6372    -8659.952   -7652.3148   0.81276012 
   68600    43.312957   -281.36799     1014.141   -8695.8044   -7681.6634   0.81276012 
   68700    43.208069   -251.15823    1011.6851   -8677.3401    -7665.655   0.81276012 
   68800    43.253706   -148.42804    1012.7536   -8670.2273   -7657.4737   0.81276012 
   68900    42.928139   -300.38093    1005.1307   -8673.1148    -7667.984   0.81276012 
   69000    43.062782   -283.37844    1008.2833   -8693.4009   -7685.1176   0.81276012 
   69100    42.742062   -281.63877    1000.7739   -8694.6198    -7693.846   0.81276012 
   69200    42.997181   -263.57395    1006.7473   -8672.1517   -7665.4044   0.81276012 
   69300    42.737415   -272.39566    1000.6651    -8681.296   -7680.6309   0.81276012 
   69400     42.98036   -231.47099    1006.3534   -8683.2434   -7676.8899   0.81276012 
   69500    42.880819   -255.05896    1004.0228   -8681.4214   -7677.3986   0.81276012 
   69600    43.591445     -274.252    1020.6616   -8674.5563   -7653.8947   0.81276012 
   69700    44.146516   -280.20199    1033.6581   -8700.0407   -7666.3826   0.81276012 
   69800    43.179033   -266.74592    1011.0052    -8664.661   -7653.6558   0.81276012 
   69900    43.260461   -341.13433    1012.9118   -8672.9548    -7660.043   0.81276012 
   70000    43.539984   -243.58177    1019.4566   -8672.6432   -7653.1866   0.81276012 
   70100    44.130306   -308.71154    1033.2786   -8663.7216    -7630.443   0.81276012 
   70200    44.200358   -308.46045    1034.9188   -8675.2734   -7640.3546   0.81276012 
   70300    43.622687    -286.0136    1021.3931   -8682.8779   -7661.4848   0.81276012 
   70400    43.614557    -287.1446    1021.2027   -8675.2876   -7654.0848   0.81276012 
   70500    43.763802   -266.50395    1024.6972   -8662.9465   -7638.2494   0.81276012 
   70600    43.445721   -264.33778    1017.2495   -8669.3549   -7652.1054   0.81276012 
   70700    44.823667   -255.65522    1049.5131   -8644.5161    -7595.003   0.81276012 
   70800    43.686546   -223.75951    1022.8883   -8661.7704   -7638.8822   0.81276012 
   70900     44.48035   -240.89315    1041.4746   -8650.7436    -7609.269   0.81276012 
   71000    43.451723   -292.91841    1017.3901   -8661.0246   -7643.6345   0.81276012 
   71100    43.325607   -303.02774    1014.4372   -8678.4953   -7664.0581   0.81276012 
   71200    42.675298   -245.83389    999.21065   -8649.6327    -7650.422   0.81276012 
   71300    43.974895    -293.4388    1029.6398    -8684.765   -7655.1253   0.81276012 
   71400    43.967749   -223.27937    1029.4724   -8652.9476   -7623.4752   0.81276012 
   71500    43.570015   -269.22923    1020.1598   -8653.3099   -7633.1501   0.81276012 
   71600    43.391414   -300.74896     1015.978   -8665.7378   -7649.7598   0.81276012 
   71700    44.504621     -303.431    1042.0429   -8662.7372   -7620.6943   0.81276012 
   71800    43.103287   -267.78076    1009.2317   -8633.3401   -7624.1084   0.81276012 
   71900     43.69319   -288.15411    1023.0438    -8661.062   -7638.0182   0.81276012 
   72000    43.733497   -312.91786    1023.9876   -8670.0888   -7646.1012   0.81276012 
   72100    43.916206    -255.6368    1028.2656   -8655.3413   -7627.0757   0.81276012 
   72200    43.915091   -249.80023    1028.2395   -8651.5746   -7623.3351   0.81276012 
   72300    44.921761    -294.2459    1051.8099   -8651.4278   -7599.6179   0.81276012 
   72400    44.649541   -273.42935    1045.4361   -8653.4536   -7608.0176   0.81276012 
   72500    45.622529   -255.86167    1068.2179   -8637.4114   -7569.1935   0.81276012 
   72600    44.472281    -226.6207    1041.2857   -8642.2859   -7601.0002   0.81276012 
   72700    44.002453   -369.17671     1030.285   -8634.7212   -7604.4363   0.81276012 
   72800    44.442256   -305.30503    1040.5827   -8637.5777   -7596.9951   0.81276012 
   72900    44.296279   -281.15945    1037.1647   -8641.3983   -7604.2336   0.81276012 
   73000    43.937877   -287.73593     1028.773   -8658.7111   -7629.9381   0.81276012 
   73100    44.635114    -277.0884    1045.0983    -8658.736   -7613.6377   0.81276012 
   73200    45.019369    -264.7627    1054.0953   -8655.9803    -7601.885   0.81276012 
   73300    45.742555   -268.91287    1071.0282   -8654.5664   -7583.5381   0.81276012 
   73400    44.670197   -279.44858    1045.9197   -8626.5676   -7580.6478   0.81276012 
   73500    43.939366   -269.95227    1028.8079   -8659.0125   -7630.2047   0.81276012 
   73600     44.42206   -249.67409    1040.1098   -8667.8382   -7627.7284   0.81276012 
   73700    44.275436   -303.86161    1036.6767   -8639.7614   -7603.0847   0.81276012 
   73800    45.429136   -267.52165    1063.6897   -8661.3043   -7597.6145   0.81276012 
   73900    45.649372   -280.26743    1068.8464   -8623.0001   -7554.1537   0.81276012 
   74000    44.593118   -269.27807     1044.115   -8625.5308   -7581.4158   0.81276012 
   74100    44.529172   -334.77755    1042.6177   -8633.2185   -7590.6007   0.81276012 
   74200    44.695029   -250.62644    1046.5012    -8644.407   -7597.9059   0.81276012 
   74300     43.94442   -275.70339    1028.9262   -8637.7748   -7608.8486   0.81276012 
   74400    45.149878   -306.56585    1057.1511   -8640.6489   -7583.4978   0.81276012 
   74500    44.560816   -290.96793    1043.3587   -8615.3375   -7571.9789   0.81276012 
   74600    46.392148   -280.38426     1086.238   -8630.8278   -7544.5899   0.81276012 
   74700    45.460487   -298.04273    1064.4238   -8626.8839   -7562.4601   0.81276012 
   74800    45.663847   -239.60564    1069.1853   -8635.0715   -7565.8862   0.81276012 
   74900    45.715901   -315.31643    1070.4041   -8606.5439   -7536.1398   0.81276012 
   75000    46.025108   -305.30068     1077.644   -8618.1498   -7540.5058   0.81276012 
   75100    44.941258   -237.09762    1052.2664   -8614.4418   -7562.1754   0.81276012 
   75200    44.675705   -281.79082    1046.0487   -8610.1293   -7564.0806   0.81276012 
   75300    46.749603   -234.50718    1094.6075   -8604.0518   -7509.4443   0.81276012 
   75400    44.775504   -259.98186    1048.3854   -8602.3937   -7554.0083   0.81276012 
   75500    45.395783   -230.12855    1062.9088   -8619.3504   -7556.4417   0.81276012 
   75600    46.070131     -235.778    1078.6982   -8628.6313   -7549.9332   0.81276012 
   75700    45.905092   -276.83205    1074.8339   -8623.7369   -7548.9031   0.81276012 
   75800    46.215122   -283.57508     1082.093   -8637.4208   -7555.3277   0.81276012 
   75900    45.423349   -244.76873    1063.5542   -8637.6071   -7574.0529   0.81276012 
   76000    45.927957   -281.82892    1075.3693   -8631.3748   -7556.0055   0.81276012 
   76100    44.963752    -221.2277    1052.7931   -8615.3745   -7562.5814   0.81276012 
   76200    45.710324   -265.14055    1070.2735   -8650.7933   -7580.5197   0.81276012 
   76300     45.25688   -264.45423    1059.6565   -8620.9198   -7561.2633   0.81276012 
   76400    45.460507   -269.55823    1064.4243   -8639.5422    -7575.118   0.81276012 
   76500    45.560554   -271.03824    1066.7668   -8617.2707   -7550.5039   0.81276012 
   76600      46.2995   -246.34934    1084.0687   -8613.1759   -7529.1072   0.81276012 
   76700    46.731634   -283.49125    1094.1868   -8609.4714   -7515.2847   0.81276012 
   76800    46.052403   -220.49129    1078.2831   -8642.8203   -7564.5373   0.81276012 
   76900    44.837679   -336.25877    1049.8412   -8619.8948   -7570.0536   0.81276012 
   77000    45.902318   -283.04778    1074.7689   -8643.8792   -7569.1102   0.81276012 
   77100    47.032331   -258.47579    1101.2274   -8598.8466   -7497.6192   0.81276012 
   77200    45.416665   -335.50284    1063.3977   -8627.4122   -7564.0145   0.81276012 
   77300     45.87623   -291.09695    1074.1581   -8593.0195   -7518.8613   0.81276012 
   77400     46.31703   -260.74004    1084.4791   -8606.2401    -7521.761   0.81276012 
   77500    46.632653   -312.56737    1091.8692   -8616.4091   -7524.5399   0.81276012 
   77600    46.157905   -258.57996    1080.7533   -8606.7363    -7525.983   0.81276012 
   77700    45.821707   -260.45662    1072.8815   -8636.1864   -7563.3049   0.81276012 
   77800    45.954984   -286.07309    1076.0021   -8618.5673   -7542.5652   0.81276012 
   77900    45.629191   -232.16499    1068.3739   -8609.0446   -7540.6707   0.81276012 
   78000    45.566516   -271.30382    1066.9064   -8628.0418   -7561.1355   0.81276012 
   78100    46.280586   -239.81515    1083.6258   -8618.7003   -7535.0745   0.81276012 
   78200    46.852593   -268.58197    1097.0189   -8614.2487   -7517.2298   0.81276012 
   78300    47.752848   -242.87266    1118.0977    -8607.975   -7489.8773   0.81276012 
   78400    45.894442   -286.09294    1074.5845   -8612.6003   -7538.0158   0.81276012 
   78500    46.912349   -271.37997    1098.4181   -8585.4581   -7487.0401   0.81276012 
   78600    46.825067   -249.80637    1096.3744   -8626.4356   -7530.0612   0.81276012 
   78700    45.932436   -318.46199    1075.4741   -8617.0902   -7541.6161   0.81276012 
   78800    46.058081   -255.68016     1078.416   -8616.6973   -7538.2813   0.81276012 
   78900     46.55611   -312.12751     1090.077   -8616.6922   -7526.6152   0.81276012 
   79000    47.738291   -226.70654    1117.7569   -8597.1676   -7479.4107   0.81276012 
   79100    45.928876   -277.20026    1075.3908   -8598.1501   -7522.7593   0.81276012 
   79200    47.124174   -217.96454    1103.3778   -8628.5285   -7525.1507   0.81276012 
   79300    45.909954    -241.6358    1074.9477   -8607.0925   -7532.1448   0.81276012 
   79400    46.397109    -228.6786    1086.3541   -8581.7766   -7495.4225   0.81276012 
   79500    47.716924   -228.02744    1117.2566   -8599.9944   -7482.7378   0.81276012 
   79600    46.591463    -261.3881    1090.9048   -8611.3709   -7520.4661   0.81276012 
   79700    46.818282   -253.76207    1096.2156   -8588.6659   -7492.4503   0.81276012 
   79800    46.895562   -257.59856     1098.025   -8596.0889   -7498.0639   0.81276012 
   79900    46.421971   -264.03353    1086.9362   -8569.6942    -7482.758   0.81276012 
   80000    47.343258   -236.39616    1108.5075     -8580.26   -7471.7525   0.81276012 
   80100    47.441885   -251.34166    1110.8168   -8581.1151   -7470.2983   0.81276012 
   80200    47.721613   -222.96412    1117.3664   -8599.7368   -7482.3704   0.81276012 
   80300    47.947073   -315.34343    1122.6454   -8577.9974   -7455.3521   0.81276012 
   80400    47.014313   -224.09339    1100.8055   -8580.9701   -7480.1646   0.81276012 
   80500    47.098876   -310.24309    1102.7855   -8602.9333   -7500.1478   0.81276012 
   80600    47.972941    -286.8858    1123.2511   -8571.0512   -7447.8002   0.81276012 
   80700    48.028075   -277.87686     1124.542   -8619.1758   -7494.6338   0.81276012 
   80800    46.850075   -262.73966      1096.96   -8601.6801   -7504.7202   0.81276012 
   80900    47.254887   -298.01127    1106.4383   -8585.5251   -7479.0868   0.81276012 
   81000    47.361525   -308.23378    1108.9352   -8611.8703   -7502.9351   0.81276012 
   81100    47.152717   -260.24587    1104.0461   -8630.3035   -7526.2574   0.81276012 
   81200    46.885818   -273.26945    1097.7969   -8582.4166   -7484.6197   0.81276012 
   81300    47.532351   -282.40586     1112.935   -8588.4947   -7475.5597   0.81276012 
   81400      48.6367   -270.32273    1138.7925   -8577.5852   -7438.7927   0.81276012 
   81500    47.965762   -179.18811     1123.083   -8552.9939    -7429.911   0.81276012 
   81600    48.224773   -302.52539    1129.1475   -8584.6212   -7455.4737   0.81276012 
   81700    47.355156   -262.63443    1108.7861   -8582.6361     -7473.85   0.81276012 
   81800    48.067518   -250.00097    1125.4655   -8573.6387   -7448.1732   0.81276012 
   81900    47.468505   -263.16522    1111.4401   -8588.3851    -7476.945   0.81276012 
   82000    48.444371   -253.90599    1134.2892   -8591.7126   -7457.4233   0.81276012 
   82100    48.646651   -279.83426    1139.0255   -8592.7412   -7453.7157   0.81276012 
   82200    46.696265   -328.21429    1093.3586   -8587.3147    -7493.956   0.81276012 
   82300    47.150025   -250.93939    1103.9831   -8608.0403   -7504.0572   0.81276012 
   82400    48.288337   -268.01807    1130.6358   -8580.2036   -7449.5678   0.81276012 
   82500    47.574146   -252.02954    1113.9136   -8594.4409   -7480.5273   0.81276012 
   82600    47.035563   -308.49637     1101.303   -8586.3662   -7485.0632   0.81276012 
   82700    47.722817   -315.03314    1117.3946   -8601.8077   -7484.4131   0.81276012 
   82800    47.960965   -196.56205    1122.9706   -8592.9781   -7470.0074   0.81276012 
   82900    48.292568   -297.37862    1130.7349    -8569.533   -7438.7982   0.81276012 
   83000    48.892994   -268.25047    1144.7934   -8579.6841   -7434.8907   0.81276012 
   83100    48.065617   -267.64479     1125.421   -8563.3958   -7437.9748   0.81276012 
   83200    48.659556   -223.00057    1139.3276    -8589.066   -7449.7384   0.81276012 
   83300    47.996159   -228.70168    1123.7947   -8578.1822   -7454.3875   0.81276012 
   83400    48.087612   -175.03898     1125.936   -8588.6485   -7462.7125   0.81276012 
   83500    48.391403   -246.03732     1133.049    -8589.505    -7456.456   0.81276012 
   83600    47.754718   -265.01799    1118.1415   -8569.7036   -7451.5621   0.81276012 
   83700    47.690665   -299.55764    1116.6418   -8575.3838   -7458.7421   0.81276012 
   83800    47.773292   -244.50115    1118.5764   -8608.1655   -7489.5891   0.81276012 
   83900    47.973864   -250.17212    1123.2727   -8601.1954   -7477.9227   0.81276012 
   84000     48.22722   -267.41057    1129.2048   -8587.2608    -7458.056   0.81276012 
   84100    48.598187   -269.87929    1137.8907   -8599.9491   -7462.0583   0.81276012 
   84200    48.665191   -299.02811    1139.4596   -8581.7405    -7442.281   0.81276012 
   84300    47.415308   -231.14717    1110.1945   -8586.1209   -7475.9264   0.81276012 
   84400    47.870591   -254.42757    1120.8546   -8575.1127   -7454.2581   0.81276012 
   84500    49.094985   -315.18161    1149.5229   -8569.8729     -7420.35   0.81276012 
   84600    48.381184    -268.9209    1132.8098   -8552.0404   -7419.2306   0.81276012 
   84700    48.898057   -290.16911     1144.912   -8582.6884   -7437.7765   0.81276012 
   84800    48.429088   -293.34138    1133.9314    -8578.295   -7444.3636   0.81276012 
   84900    48.210257   -241.33574    1128.8076   -8572.9679   -7444.1602   0.81276012 
   85000     47.87854   -275.93898    1121.0407    -8570.817   -7449.7763   0.81276012 
   85100    47.748385    -284.4526    1117.9932   -8597.0863   -7479.0931   0.81276012 
   85200    48.017672   -282.59641    1124.2984    -8574.722   -7450.4236   0.81276012 
   85300    47.863001   -308.98884    1120.6769     -8565.47   -7444.7931   0.81276012 
   85400    48.301617   -287.50764    1130.9468    -8575.688   -7444.7412   0.81276012 
   85500    50.189446   -306.41967    1175.1489   -8580.6768   -7405.5279   0.81276012 
   85600    48.963337   -291.42746    1146.4405   -8566.7515    -7420.311   0.81276012 
   85700    47.930503   -264.42518    1122.2574    -8579.487   -7457.2296   0.81276012 
   85800    48.532223   -265.66675    1136.3462   -8549.2857   -7412.9394   0.81276012 
   85900     48.69748   -249.44366    1140.2156   -8538.6545   -7398.4389   0.81276012 
[...]
  179300    321.82908    120.88692    7535.3907   -1690.5225    5844.8683   0.81276012 
  179400    327.30412    13.391285    7663.5848   -1765.7806    5897.8042   0.81276012 
  179500    321.34906   -78.296957    7524.1514   -1753.8398    5770.3117   0.81276012 
  179600    319.23358   -25.871535    7474.6191   -1665.7593    5808.8598   0.81276012 
  179700    325.56934   -167.61044    7622.9661   -1718.8522    5904.1139   0.81276012 
  179800    317.83769    16.755828    7441.9351   -1673.3682    5768.5669   0.81276012 
  179900    318.82206   -16.116218    7464.9834   -1694.8559    5770.1275   0.81276012 
  180000    322.59096   -214.14225    7553.2296   -1790.4973    5762.7323   0.81276012 
  180100    317.07963   -106.18262    7424.1858   -1632.9946    5791.1912   0.81276012 
  180200    322.97009    64.386542    7562.1066   -1591.5423    5970.5644   0.81276012 
  180300    324.08075    63.008001     7588.112    -1804.177     5783.935   0.81276012 
  180400    322.28475    112.89009    7546.0599   -1582.5139     5963.546   0.81276012 
  180500    316.92261    66.713081    7420.5092    -1645.828    5774.6812   0.81276012 
  180600    321.94621    1.0395663    7538.1331   -1527.4347    6010.6984   0.81276012 
  180700     319.5139    18.557993    7481.1825    -1543.282    5937.9005   0.81276012 
  180800     321.8849   -62.294588    7536.6977   -1553.0545    5983.6431   0.81276012 
  180900    324.88981   -45.836847    7607.0555   -1595.4317    6011.6238   0.81276012 
  181000    320.51182   -57.258607    7504.5481   -1505.8794    5998.6687   0.81276012 
  181100    321.61313   -20.882683    7530.3344   -1653.9575    5876.3769   0.81276012 
  181200    331.13658    117.61532    7753.3189   -1692.8392    6060.4797   0.81276012 
  181300    317.45611    56.308359    7433.0008   -1655.5259    5777.4749   0.81276012 
  181400    324.09536      79.1391    7588.4539   -1484.8578    6103.5962   0.81276012 
  181500    325.29381    31.060089    7616.5149   -1510.2576    6106.2573   0.81276012 
  181600    326.05343   -130.77114    7634.3006   -1628.8069    6005.4938   0.81276012 
  181700    325.86226   -38.158747    7629.8247   -1627.9419    6001.8828   0.81276012 
  181800    322.08714    168.20542     7541.433   -1713.2187    5828.2144   0.81276012 
  181900    325.15784    93.674841    7613.3311   -1585.8354    6027.4957   0.81276012 
  182000    326.32624    21.079403    7640.6883    -1598.113    6042.5752   0.81276012 
  182100    325.88386     86.48568    7630.3303   -1533.7638    6096.5665   0.81276012 
  182200     322.1315    34.483898    7542.4715   -1594.2348    5948.2367   0.81276012 
  182300    325.17502     2.158474    7613.7333   -1709.3548    5904.3785   0.81276012 
  182400    320.59808   -56.978981    7506.5678   -1564.5217    5942.0461   0.81276012 
  182500    318.50573     25.04045     7457.577   -1615.2484    5842.3286   0.81276012 
  182600    321.59067    13.582992    7529.8085   -1531.6474    5998.1611   0.81276012 
  182700    320.79614      79.3352    7511.2052   -1561.4867    5949.7185   0.81276012 
  182800    325.37269    54.194227    7618.3616    -1795.087    5823.2746   0.81276012 
  182900    325.98181   -68.432857    7632.6239   -1546.5528    6086.0711   0.81276012 
  183000    327.44379    49.402912    7666.8551   -1706.1517    5960.7033   0.81276012 
  183100    326.65111   -138.42472     7648.295   -1635.1321    6013.1629   0.81276012 
  183200    323.10212   -249.35931    7565.1981   -1729.3671     5835.831   0.81276012 
  183300    321.79509   -151.75834    7534.5948   -1503.1877    6031.4071   0.81276012 
  183400    329.35659   -66.298761    7711.6417   -1584.0039    6127.6379   0.81276012 
  183500    323.30227   -92.827421    7569.8843   -1704.1759    5865.7083   0.81276012 
  183600    325.89727    53.121151    7630.6443   -1496.6523     6133.992   0.81276012 
  183700    324.26148    63.414823    7592.3436     -1456.42    6135.9236   0.81276012 
  183800    331.17754     25.05705     7754.278   -1521.0967    6233.1813   0.81276012 
  183900    327.39184   -76.587694    7665.6386   -1633.4859    6032.1527   0.81276012 
  184000     326.6056    116.91805    7647.2294   -1560.4862    6086.7433   0.81276012 
  184100    327.75479   -108.59326    7674.1369   -1529.6557    6144.4812   0.81276012 
  184200    330.15362    21.488572    7730.3036   -1528.5431    6201.7605   0.81276012 
  184300    327.32686    11.464667    7664.1171   -1446.3993    6217.7178   0.81276012 
  184400    326.56355    87.638451    7646.2448   -1461.4323    6184.8125   0.81276012 
  184500    327.41538    19.048204    7666.1899   -1647.1962    6018.9937   0.81276012 
  184600    328.49889    24.227263    7691.5594   -1670.4815     6021.078   0.81276012 
  184700    323.09393    143.78017    7565.0061   -1510.6114    6054.3947   0.81276012 
  184800    324.05758    51.274877    7587.5693    -1593.182    5994.3873   0.81276012 
  184900    322.38138   -7.4834714    7548.3224   -1697.5392    5850.7832   0.81276012 
  185000    324.01049    197.17126    7586.4668   -1610.5109     5975.956   0.81276012 
  185100     331.3198    97.613769    7757.6089   -1600.7027    6156.9062   0.81276012 
  185200    325.08524   -15.451223    7611.6312   -1372.2073    6239.4239   0.81276012 
  185300    325.95706   -28.882421    7632.0443   -1638.4479    5993.5964   0.81276012 
  185400     327.4202   -62.828864    7666.3027   -1424.1516    6242.1511   0.81276012 
  185500    329.35641    1.0127092    7711.6377    -1529.296    6182.3417   0.81276012 
  185600    327.07012   -228.23976    7658.1058   -1514.5793    6143.5266   0.81276012 
  185700    325.08859   -136.83483    7611.7097   -1451.9614    6159.7483   0.81276012 
  185800    325.11255   -62.432607    7612.2708   -1500.5033    6111.7675   0.81276012 
  185900    329.76009    8.2640764    7721.0895   -1647.0921    6073.9975   0.81276012 
  186000    326.27931   -93.411575    7639.5895   -1563.0176    6076.5719   0.81276012 
  186100    325.94547   -101.58268    7631.7729   -1681.1123    5950.6606   0.81276012 
  186200    335.74363    -64.34647    7861.1896   -1609.3807     6251.809   0.81276012 
  186300    330.44493    33.526734    7737.1245    -1468.292    6268.8325   0.81276012 
  186400     331.8965    153.29086     7771.112   -1595.5758    6175.5362   0.81276012 
  186500    325.06838    34.072295    7611.2364   -1564.5209    6046.7155   0.81276012 
  186600    324.89044   -122.02892    7607.0701   -1467.7891     6139.281   0.81276012 
  186700    327.59404   -93.257563     7670.373   -1512.4465    6157.9266   0.81276012 
  186800     320.9454   -41.793535    7514.7001   -1556.3256    5958.3745   0.81276012 
  186900    328.27031   -146.78283    7686.2074   -1467.2198    6218.9876   0.81276012 
  187000    327.88768    79.406623    7677.2484   -1407.7706    6269.4778   0.81276012 
  187100    335.88974    103.01815    7864.6106   -1427.5586    6437.0521   0.81276012 
  187200    323.02608     70.08822    7563.4175    -1428.839    6134.5785   0.81276012 
  187300    326.74819    136.44797    7650.5679   -1553.0496    6097.5183   0.81276012 
  187400    329.81362   -84.786741    7722.3429   -1516.2126    6206.1303   0.81276012 
  187500    324.69466   -126.74729    7602.4861    -1544.277     6058.209   0.81276012 
  187600    329.14477    12.553566    7706.6822   -1622.8628    6083.8194   0.81276012 
  187700    322.96808   -27.218233    7562.0595   -1609.3295      5952.73   0.81276012 
  187800    329.90364   -138.05083    7724.4505   -1584.6379    6139.8126   0.81276012 
  187900    326.83257   -87.307858    7652.5437   -1693.0103    5959.5334   0.81276012 
  188000    321.48309   -140.81814    7527.2897   -1503.3236     6023.966   0.81276012 
  188100    324.82993   -236.99244    7605.6533   -1452.9949    6152.6584   0.81276012 
  188200    330.39463   -7.5198743    7735.9468    -1562.446    6173.5008   0.81276012 
  188300    325.86994   -92.342014    7630.0045   -1588.5907    6041.4139   0.81276012 
  188400    327.83833   0.77803048    7676.0928   -1653.4978     6022.595   0.81276012 
  188500    330.41429    41.758701    7736.4071   -1569.9644    6166.4428   0.81276012 
  188600    331.35793    38.764018    7758.5016   -1543.3278    6215.1738   0.81276012 
  188700     332.7173    72.970583    7790.3303   -1416.6831    6373.6472   0.81276012 
  188800     333.6033   -94.905819    7811.0753   -1471.1239    6339.9513   0.81276012 
  188900    333.59616   -68.538394    7810.9083    -1480.879    6330.0292   0.81276012 
  189000    330.18014    43.406976    7730.9246   -1499.7141    6231.2105   0.81276012 
  189100    330.10546    35.487149     7729.176   -1558.1335    6171.0425   0.81276012 
  189200    330.02431   -54.790293    7727.2761   -1561.2763    6165.9998   0.81276012 
  189300     332.8976   -161.34189    7794.5519   -1449.5367    6345.0151   0.81276012 
  189400    330.51603    154.62074    7738.7892   -1484.8932     6253.896   0.81276012 
  189500      328.907    37.285805    7701.1151   -1533.4766    6167.6385   0.81276012 
  189600    329.08439    20.224536    7705.2685   -1553.1884    6152.0801   0.81276012 
  189700    331.32554    60.796055    7757.7432   -1334.7267    6423.0166   0.81276012 
  189800    335.13718   -28.391993    7846.9901   -1579.2771     6267.713   0.81276012 
  189900    326.09453    60.342777     7635.263   -1556.8503    6078.4127   0.81276012 
  190000    325.99895   -5.9996456    7633.0252   -1491.0983    6141.9269   0.81276012 
  190100    327.89048   -117.96862    7677.3139   -1481.6936    6195.6203   0.81276012 
  190200    330.91001    61.299256    7748.0139   -1541.5698     6206.444   0.81276012 
  190300    336.73468    154.47289    7884.3943    -1595.165    6289.2293   0.81276012 
  190400    331.26187    136.69021    7756.2525   -1539.2284    6217.0241   0.81276012 
  190500     332.2458    74.881286    7779.2906   -1511.2202    6268.0703   0.81276012 
  190600    328.67803   -53.663394    7695.7539    -1489.485    6206.2688   0.81276012 
  190700    323.12556    78.180519    7565.7468   -1609.3734    5956.3734   0.81276012 
  190800    328.96679   -11.391979    7702.5149    -1645.032    6057.4829   0.81276012 
  190900    328.88509    13.037282     7700.602   -1649.8322    6050.7697   0.81276012 
  191000     333.0107   -41.419215    7797.2002   -1536.3715    6260.8286   0.81276012 
  191100    337.32554    136.27457     7898.229   -1526.1595    6372.0695   0.81276012 
  191200    330.82692    -41.29911    7746.0685    -1572.619    6173.4495   0.81276012 
  191300    327.58695      127.381    7670.2069   -1480.0605    6190.1465   0.81276012 
  191400    331.80361   -161.37206     7768.937   -1503.7282    6265.2088   0.81276012 
  191500    334.50792    235.88444    7832.2563   -1435.9869    6396.2694   0.81276012 
  191600    334.90872    124.86228    7841.6408   -1490.7161    6350.9247   0.81276012 
  191700    330.07065    78.081441    7728.3609   -1464.8415    6263.5193   0.81276012 
  191800    329.36956     40.55738    7711.9456   -1478.9857    6232.9598   0.81276012 
  191900    327.91427    151.27331    7677.8709   -1569.7664    6108.1045   0.81276012 
  192000    331.86884     89.05862    7770.4642   -1374.6166    6395.8476   0.81276012 
  192100    332.30371    60.604544    7780.6465   -1392.1581    6388.4885   0.81276012 
  192200    332.41016    243.23622    7783.1389   -1463.4886    6319.6503   0.81276012 
  192300    327.89202    106.95066    7677.3499   -1407.9023    6269.4476   0.81276012 
  192400     337.1259   0.23552391    7893.5544   -1513.5469    6380.0075   0.81276012 
  192500    331.56198   -109.36687    7763.2795   -1415.8239    6347.4556   0.81276012 
  192600     333.2801    28.390814    7803.5079    -1259.323    6544.1849   0.81276012 
  192700    335.83575    151.58466    7863.3465   -1341.0987    6522.2478   0.81276012 
  192800    332.15776    27.998615    7777.2292   -1374.4748    6402.7544   0.81276012 
  192900    332.19709   -89.943778    7778.1501   -1366.9096    6411.2405   0.81276012 
  193000    336.10952    -29.75757    7869.7566   -1490.8501    6378.9065   0.81276012 
  193100    334.26042    64.593829    7826.4614   -1357.3667    6469.0948   0.81276012 
  193200    331.82195    82.754136    7769.3663   -1277.0954     6492.271   0.81276012 
  193300    332.22733    38.850447     7778.858   -1351.6657    6427.1922   0.81276012 
  193400    333.33037    100.15199     7804.685   -1288.0559    6516.6291   0.81276012 
  193500    331.95186   -28.572167     7772.408   -1361.4516    6410.9564   0.81276012 
  193600     334.8177    29.941869    7839.5097   -1501.6472    6337.8625   0.81276012 
  193700    333.73248   -22.312547    7814.0999   -1347.3744    6466.7255   0.81276012 
  193800    326.79145    18.351658    7651.5808   -1340.4479    6311.1329   0.81276012 
  193900    332.45173   -35.198059    7784.1121   -1416.3879    6367.7243   0.81276012 
  194000    329.22152    51.754397    7708.4793   -1427.6149    6280.8644   0.81276012 
  194100    329.90547   0.25105224    7724.4935   -1495.9853    6228.5082   0.81276012 
  194200    329.15105    139.40163    7706.8293   -1182.6892    6524.1401   0.81276012 
  194300    333.65767    7.9149645    7812.3483   -1303.6879    6508.6604   0.81276012 
  194400    330.25475   -72.468714    7732.6715   -1367.3099    6365.3616   0.81276012 
  194500    338.16044   -10.406277    7917.7775   -1302.9337    6614.8439   0.81276012 
  194600    341.91983    95.702724    8005.8008   -1396.1735    6609.6273   0.81276012 
  194700    335.10364   -179.06833    7846.2047   -1219.2566    6626.9481   0.81276012 
  194800    329.57942    12.247919    7716.8591   -1363.0104    6353.8487   0.81276012 
  194900    333.28402    34.356624    7803.5997   -1371.5063    6432.0934   0.81276012 
  195000    338.53004    11.152042    7926.4314   -1319.5149    6606.9165   0.81276012 
  195100    333.71419   -243.39938    7813.6718   -1305.2884    6508.3834   0.81276012 
  195200    336.67427    9.4931924      7882.98   -1482.4982    6400.4818   0.81276012 
  195300    337.71726   0.78650424    7907.4007   -1500.8499    6406.5508   0.81276012 
  195400     332.7784    62.513347    7791.7609   -1266.5488    6525.2121   0.81276012 
  195500    331.99255    27.453718    7773.3609   -1365.1208    6408.2401   0.81276012 
  195600    336.22961    145.93986    7872.5685    -1293.274    6579.2944   0.81276012 
  195700    338.70342    47.126998     7930.491   -1454.3327    6476.1584   0.81276012 
  195800    336.93968   -22.678229    7889.1942    -1384.069    6505.1252   0.81276012 
  195900    334.71389    67.425252    7837.0791   -1225.5589    6611.5202   0.81276012 
  196000     336.0604    77.056826    7868.6065    -1276.722    6591.8844   0.81276012 
  196100     339.1585    73.606886    7941.1463   -1182.1661    6758.9802   0.81276012 
  196200    334.09124   -85.589553    7822.5002   -1167.4306    6655.0696   0.81276012 
  196300    335.61839   -133.24302    7858.2573   -1251.3475    6606.9099   0.81276012 
  196400    338.11472    25.807567    7916.7071   -1287.2203    6629.4868   0.81276012 
  196500    338.67637    250.88183    7929.8577   -1382.0569    6547.8008   0.81276012 
  196600    339.01163    217.10173    7937.7073   -1445.7053    6492.0021   0.81276012 
  196700    332.63616   -97.548468    7788.4306   -1409.1431    6379.2875   0.81276012 
  196800    328.66588    97.442987    7695.4694   -1286.1732    6409.2962   0.81276012 
  196900    335.45952   -5.9910266    7854.5373   -1330.9588    6523.5785   0.81276012 
  197000    333.28234    31.318227    7803.5602   -1284.2966    6519.2637   0.81276012 
  197100    336.96216    69.671893    7889.7206   -1340.2876    6549.4329   0.81276012 
  197200    342.91235    45.926675      8029.04   -1210.2519    6818.7881   0.81276012 
  197300    341.63367    4.7093627    7999.1006   -1236.8788    6762.2218   0.81276012 
  197400    335.64295    62.660657    7858.8323   -1339.2453     6519.587   0.81276012 
  197500    339.41855   -155.50662    7947.2353    -1260.943    6686.2923   0.81276012 
  197600    335.06199    51.087288    7845.2295   -1335.7474     6509.482   0.81276012 
  197700    339.04847    106.97411    7938.5701   -1259.9133    6678.6569   0.81276012 
  197800    333.46015    146.45918    7807.7236   -1186.5896     6621.134   0.81276012 
  197900    336.43381    89.161504    7877.3496   -1319.9314    6557.4182   0.81276012 
  198000     336.0304    39.007058    7867.9042   -1286.8559    6581.0483   0.81276012 
  198100    342.16078    49.806772    8011.4424   -1238.9503    6772.4921   0.81276012 
  198200    338.11885    172.08622    7916.8037   -1303.7656    6613.0381   0.81276012 
  198300    338.52729    21.033152     7926.367   -1300.5975    6625.7695   0.81276012 
  198400    338.43768    71.691327    7924.2689   -1329.8144    6594.4545   0.81276012 
  198500    337.62447     69.06347    7905.2281   -1328.4964    6576.7316   0.81276012 
  198600    342.25224   -49.777217     8013.584   -1307.8126    6705.7714   0.81276012 
  198700    343.33418   -129.48303    8038.9168   -1182.7782    6856.1386   0.81276012 
  198800    340.74036    42.074464    7978.1844   -1243.6968    6734.4876   0.81276012 
  198900    337.97682    30.703521    7913.4782   -1256.2684    6657.2098   0.81276012 
  199000    338.18881    238.75292    7918.4418   -1255.2633    6663.1785   0.81276012 
  199100    339.20907    18.618543    7942.3305   -1292.9251    6649.4054   0.81276012 
  199200    339.55598     18.88472    7950.4529   -1222.7321    6727.7207   0.81276012 
  199300    342.13867   -157.95103    8010.9247   -1243.7505    6767.1742   0.81276012 
  199400    337.02349   -24.860057    7891.1565   -1312.2186    6578.9379   0.81276012 
  199500    333.57804   -53.190987     7810.484   -1322.8726    6487.6114   0.81276012 
  199600    338.55781   -94.066403    7927.0816   -1337.1882    6589.8934   0.81276012 
  199700    342.65557   -48.011917    8023.0277   -1240.5983    6782.4294   0.81276012 
  199800    337.81022   -244.80793    7909.5773   -1245.5746    6664.0027   0.81276012 
  199900    341.09157     8.382124    7986.4078   -1368.0176    6618.3901   0.81276012 
  200000    340.98416   -171.37066    7983.8927   -1291.3938    6692.4989   0.81276012 
  200100    339.48921    149.66131    7948.8895   -1087.2706    6861.6189   0.81276012 
Loop time of 922.477 on 12 procs for 100000 steps with 7856 atoms

Performance: 9.366 ns/day, 2.562 hours/ns, 108.404 timesteps/s
98.5% CPU use with 12 MPI tasks x 1 OpenMP threads

MPI task timing breakdown:
Section |  min time  |  avg time  |  max time  |%varavg| %total
---------------------------------------------------------------
Pair    | 576.46     | 624.18     | 669.62     | 137.8 | 67.66
Bond    | 27.976     | 31.026     | 34.66      |  33.3 |  3.36
Kspace  | 194.15     | 234.11     | 275.63     | 204.4 | 25.38
Neigh   | 2.2874     | 2.2882     | 2.2888     |   0.0 |  0.25
Comm    | 12.038     | 20.967     | 31.953     | 115.3 |  2.27
Output  | 0.049658   | 0.058318   | 0.15       |  11.4 |  0.01
Modify  | 5.659      | 5.8718     | 6.169      |   7.4 |  0.64
Other   |            | 3.977      |            |       |  0.43

Nlocal:    654.667 ave 679 max 630 min
Histogram: 1 1 2 1 1 1 2 0 1 2
Nghost:    5246.83 ave 5277 max 5205 min
Histogram: 1 0 2 0 1 2 0 2 3 1
Neighs:    602303 ave 627064 max 569213 min
Histogram: 1 1 1 1 0 1 1 3 2 1

Total # of neighbors = 7227637
Ave neighs/atom = 920.015
Ave special neighs/atom = 7.49491
Neighbor list builds = 158
Dangerous builds = 0
System init for write_restart ...
Ewald initialization ...
WARNING: Using 12-bit tables for long-range coulomb (../kspace.cpp:321)
  G vector (1/distance) = 0.130214
  estimated absolute RMS force accuracy = 0.0385551
  estimated relative force accuracy = 0.000116108
  KSpace vectors: actual max1d max3d = 472 7 1687
                  kxmax kymax kzmax  = 6 5 7
Total wall time: 0:31:15
