
                                 *****************
                                 * O   R   C   A *
                                 *****************

           --- An Ab Initio, DFT and Semiempirical electronic structure package ---

                  #######################################################
                  #                        -***-                        #
                  #  Department of molecular theory and spectroscopy    #
                  #              Directorship: Frank Neese              #
                  # Max Planck Institute for Chemical Energy Conversion #
                  #                  D-45470 Muelheim/Ruhr              #
                  #                       Germany                       #
                  #                                                     #
                  #                  All rights reserved                #
                  #                        -***-                        #
                  #######################################################


                         Program Version 4.0.1.2 - RELEASE -


 With contributions from (in alphabetic order):
   Daniel Aravena         : Magnetic Properties
   Michael Atanasov       : Ab Initio Ligand Field Theory
   Ute Becker             : Parallelization
   Martin Brehm           : Molecular dynamics
   Dmytro Bykov           : SCF Hessian
   Vijay G. Chilkuri      : MRCI spin determinant printing
   Dipayan Datta          : RHF DLPNO-CCSD density
   Achintya Kumar Dutta   : EOM-CC, STEOM-CC
   Dmitry Ganyushin       : Spin-Orbit,Spin-Spin,Magnetic field MRCI
   Yang Guo               : DLPNO-NEVPT2, CIM, IAO-localization
   Andreas Hansen         : Spin unrestricted coupled pair/coupled cluster methods
   Lee Huntington         : MR-EOM, pCC
   Robert Izsak           : Overlap fitted RIJCOSX, COSX-SCS-MP3, EOM
   Christian Kollmar      : KDIIS, OOCD, Brueckner-CCSD(T), CCSD density
   Simone Kossmann        : Meta GGA functionals, TD-DFT gradient, OOMP2, MP2 Hessian
   Martin Krupicka        : AUTO-CI
   Dagmar Lenk            : GEPOL surface
   Dimitrios Liakos       : Extrapolation schemes; parallel MDCI
   Dimitrios Manganas     : ROCIS; embedding schemes
   Dimitrios Pantazis     : SARC Basis sets
   Taras Petrenko         : DFT Hessian,TD-DFT gradient, ASA, ECA, R-Raman, ABS, FL, XAS/XES, NRVS
   Peter Pinski           : DLPNO-MP2
   Christoph Reimann      : Effective Core Potentials
   Marius Retegan         : Local ZFS, SOC
   Christoph Riplinger    : Optimizer, TS searches, QM/MM, DLPNO-CCSD(T), (RO)-DLPNO pert. Triples
   Tobias Risthaus        : Range-separated hybrids, TD-DFT gradient, RPA, STAB
   Michael Roemelt        : Restricted open shell CIS
   Masaaki Saitow         : Open-shell DLPNO
   Barbara Sandhoefer     : DKH picture change effects
   Kantharuban Sivalingam : CASSCF convergence, NEVPT2, FIC-MRCI
   Georgi Stoychev        : AutoAux
   Boris Wezisla          : Elementary symmetry handling
   Frank Wennmohs         : Technical directorship


 We gratefully acknowledge several colleagues who have allowed us to
 interface, adapt or use parts of their codes:
   Stefan Grimme, W. Hujo, H. Kruse,             : VdW corrections, initial TS optimization,
                  C. Bannwarth                     DFT functionals, gCP, sTDA/sTD-DF
   Ed Valeev                                     : LibInt (2-el integral package), F12 methods
   Garnet Chan, S. Sharma, J. Yang, R. Olivares  : DMRG
   Ulf Ekstrom                                   : XCFun DFT Library
   Mihaly Kallay                                 : mrcc  (arbitrary order and MRCC methods)
   Andreas Klamt, Michael Diedenhofen            : otool_cosmo (COSMO solvation model)
   Jiri Pittner, Ondrej Demel                    : Mk-CCSD
   Frank Weinhold                                : gennbo (NPA and NBO analysis)
   Christopher J. Cramer and Donald G. Truhlar   : smd solvation model


 Your calculation uses the libint2 library for the computation of 2-el integrals
 For citations please refer to: http://libint.valeyev.net

 This ORCA versions uses:
   CBLAS   interface :  Fast vector & matrix operations
   LAPACKE interface :  Fast linear algebra routines
   SCALAPACK package :  Parallel linear algebra routines


Your calculation utilizes the basis: 6-31+G**
   H-He, Li-Ne : W. J. Hehre, R. Ditchfield and J.A. Pople, J. Chem. Phys. 56, 2257 (1972).
                 Note: He and Ne are unpublished basis sets taken from the Gaussian program.
                 Note: Li and B from J. D. Dill and J. A. Pople, J. Chem. Phys. 62, 2921 (1975).
   Na - Ar     : M. M. Francl, W. J. Pietro, W. J. Hehre, J. S. Binkley, M. S. Gordon, 
                 D. J. DeFrees and J. A. Pople, J. Chem. Phys. 77, 3654 (1982).
   K - Zn      : V. A. Rassolov, J. A. Pople, M. A. Ratner, and T. L. Windus, J. Chem. Phys. 109, 1223 (1998).
   Additional Pol./Diff. from the 6-311G equivalent.

================================================================================
                                        WARNINGS
                       Please study these warnings very carefully!
================================================================================

Warning: TCutStore was < 0. Adjusted to Thresh (uncritical)

WARNING: Geometry Optimization
  ===> : Switching off AutoStart
         For restart on a previous wavefunction, please use MOREAD

INFO   : the flag for use of LIBINT has been found!

================================================================================
                                       INPUT FILE
================================================================================
NAME = OEG6.inp
|  1> ! RKS B3LYP 6-31+G** NormalSCF Opt NOSOSCF CHELPG
|  2> 
|  3> *xyz 0 1
|  4> S -4.21578 2.36276 -1.81581
|  5> C -2.37870 2.32090 -1.78532
|  6> C -1.89209 1.16089 -0.91156
|  7> O -0.45485 1.14987 -0.90283
|  8> C 0.03829 0.08204 -0.10059
|  9> C 1.56026 0.10924 -0.12040
| 10> O 2.06601 -0.96017 0.68098
| 11> C 3.49049 -0.97224 0.69032
| 12> C 3.96801 -2.13089 1.55527
| 13> O 5.39467 -2.15276 1.57169
| 14> C 5.88522 -3.22577 2.37159
| 15> C 7.40757 -3.20150 2.35356
| 16> O 7.90541 -4.27301 3.15275
| 17> C 9.33092 -4.28927 3.16509
| 18> C 9.80815 -5.44926 4.02870
| 19> O 11.23452 -5.46955 4.04359
| 20> C 11.72848 -6.54343 4.84289
| 21> C 13.25161 -6.51945 4.82273
| 22> O 13.75343 -7.59042 5.61992
| 23> C 15.17474 -7.60626 5.62919
| 24> H -1.94155 3.25074 -1.39996
| 25> H -1.94241 2.20643 -2.78570
| 26> H -2.24864 0.20056 -1.30569
| 27> H -2.24907 1.27411 0.12017
| 28> H -0.31983 -0.88001 -0.48628
| 29> H -0.32046 0.18423 0.93075
| 30> H 1.92068 1.07001 0.26681
| 31> H 1.92119 0.00801 -1.15107
| 32> H 3.87502 -0.02631 1.09015
| 33> H 3.87546 -1.08654 -0.33009
| 34> H 3.58185 -3.07655 1.15586
| 35> H 3.58185 -2.01698 2.57545
| 36> H 5.52357 -4.18462 1.98101
| 37> H 5.52351 -3.12563 3.40197
| 38> H 7.76813 -2.24178 2.74304
| 39> H 7.76846 -3.30086 1.32285
| 40> H 9.71604 -3.34369 3.56695
| 41> H 9.71683 -4.40118 2.14488
| 42> H 9.42180 -6.39387 3.62741
| 43> H 9.42195 -5.33614 5.04886
| 44> H 11.36568 -7.50164 4.45251
| 45> H 11.36778 -6.44273 5.87355
| 46> H 13.61231 -5.55937 5.21123
| 47> H 13.60999 -6.61778 3.79087
| 48> H 15.50553 -8.44190 6.25135
| 49> H 15.56494 -6.67677 6.05490
| 50> H 15.56239 -7.74918 4.61591
| 51> **                         ****END OF INPUT****
================================================================================

                       *****************************
                       * Geometry Optimization Run *
                       *****************************

Geometry optimization settings:
Update method            Update   .... BFGS
Choice of coordinates    CoordSys .... Redundant Internals
Initial Hessian          InHess   .... Almoef's Model

Convergence Tolerances:
Energy Change            TolE     ....  5.0000e-06 Eh
Max. Gradient            TolMAXG  ....  3.0000e-04 Eh/bohr
RMS Gradient             TolRMSG  ....  1.0000e-04 Eh/bohr
Max. Displacement        TolMAXD  ....  4.0000e-03 bohr
RMS Displacement         TolRMSD  ....  2.0000e-03 bohr

------------------------------------------------------------------------------
                        ORCA OPTIMIZATION COORDINATE SETUP
------------------------------------------------------------------------------

The optimization will be done in new redundant internal coordinates
Making redundant internal coordinates   ...  (new redundants) done
Evaluating the initial hessian          ...  (Almloef) done
Evaluating the coordinates              ...  done
Calculating the B-matrix                .... done
Calculating the G-matrix                .... done
Diagonalizing the G-matrix              .... done
Small eigenvalue found = 2.963e-04
Small eigenvalue found = 1.294e-03
Small eigenvalue found = 2.061e-03
Small eigenvalue found = 7.032e-03
Small eigenvalue found = 8.726e-03
Small eigenvalue found = 8.952e-03
Small eigenvalue found = 1.146e-02
Small eigenvalue found = 1.715e-02
The first mode is                       ....   85
The number of degrees of freedom        ....  135

    -----------------------------------------------------------------
                    Redundant Internal Coordinates


    -----------------------------------------------------------------
         Definition                    Initial Value    Approx d2E/dq
    -----------------------------------------------------------------
      1. B(C   1,S   0)                  1.8378         0.325128   
      2. B(C   2,C   1)                  1.5316         0.371354   
      3. B(O   3,C   2)                  1.4373         0.470324   
      4. B(C   4,O   3)                  1.4237         0.494362   
      5. B(C   5,C   4)                  1.5223         0.384234   
      6. B(O   6,C   5)                  1.4289         0.485157   
      7. B(C   7,O   6)                  1.4246         0.492872   
      8. B(C   8,C   7)                  1.5227         0.383720   
      9. B(O   9,C   8)                  1.4269         0.488617   
     10. B(C  10,O   9)                  1.4254         0.491316   
     11. B(C  11,C  10)                  1.5227         0.383799   
     12. B(O  12,C  11)                  1.4264         0.489513   
     13. B(C  13,O  12)                  1.4257         0.490895   
     14. B(C  14,C  13)                  1.5229         0.383482   
     15. B(O  15,C  14)                  1.4266         0.489210   
     16. B(C  16,O  15)                  1.4269         0.488624   
     17. B(C  17,C  16)                  1.5235         0.382670   
     18. B(O  18,C  17)                  1.4263         0.489747   
     19. B(C  19,O  18)                  1.4214         0.498578   
     20. B(H  20,C   1)                  1.0974         0.350491   
     21. B(H  21,C   1)                  1.0974         0.350486   
     22. B(H  22,C   2)                  1.0976         0.350200   
     23. B(H  23,C   2)                  1.0976         0.350188   
     24. B(H  24,C   4)                  1.0966         0.351465   
     25. B(H  25,C   4)                  1.0967         0.351312   
     26. B(H  26,C   5)                  1.0968         0.351249   
     27. B(H  27,C   5)                  1.0967         0.351317   
     28. B(H  28,C   7)                  1.0966         0.351486   
     29. B(H  29,C   7)                  1.0966         0.351491   
     30. B(H  30,C   8)                  1.0968         0.351245   
     31. B(H  31,C   8)                  1.0968         0.351279   
     32. B(H  32,C  10)                  1.0967         0.351353   
     33. B(H  33,C  10)                  1.0966         0.351466   
     34. B(H  34,C  11)                  1.0967         0.351339   
     35. B(H  35,C  11)                  1.0966         0.351506   
     36. B(H  36,C  13)                  1.0972         0.350652   
     37. B(H  37,C  13)                  1.0965         0.351623   
     38. B(H  38,C  14)                  1.0966         0.351441   
     39. B(H  39,C  14)                  1.0967         0.351391   
     40. B(H  40,C  16)                  1.0964         0.351677   
     41. B(H  41,C  16)                  1.0966         0.351490   
     42. B(H  42,C  17)                  1.0967         0.351322   
     43. B(H  43,C  17)                  1.0967         0.351292   
     44. B(H  44,C  19)                  1.0931         0.356063   
     45. B(H  45,C  19)                  1.0943         0.354490   
     46. B(H  46,C  19)                  1.0943         0.354491   
     47. A(C   2,C   1,H  21)          108.3452         0.322567   
     48. A(S   0,C   1,C   2)          110.1389         0.373141   
     49. A(H  20,C   1,H  21)          104.4858         0.288383   
     50. A(S   0,C   1,H  20)          112.6271         0.331555   
     51. A(S   0,C   1,H  21)          112.6235         0.331555   
     52. A(C   2,C   1,H  20)          108.3520         0.322567   
     53. A(C   1,C   2,H  22)          110.7690         0.322523   
     54. A(O   3,C   2,H  23)          108.6813         0.333322   
     55. A(C   1,C   2,H  23)          110.7805         0.322522   
     56. A(H  22,C   2,H  23)          108.7923         0.288307   
     57. A(C   1,C   2,O   3)          109.0847         0.375267   
     58. A(O   3,C   2,H  22)          108.6814         0.333324   
     59. A(C   2,O   3,C   4)          110.8257         0.391905   
     60. A(H  24,C   4,H  25)          107.7981         0.288614   
     61. A(C   5,C   4,H  24)          109.7301         0.324525   
     62. A(O   3,C   4,H  25)          110.2853         0.336273   
     63. A(O   3,C   4,H  24)          110.2852         0.336298   
     64. A(O   3,C   4,C   5)          108.9990         0.380758   
     65. A(C   5,C   4,H  25)          109.7309         0.324501   
     66. A(C   4,C   5,O   6)          109.4629         0.379519   
     67. A(H  26,C   5,H  27)          107.7275         0.288587   
     68. A(C   4,C   5,H  26)          109.8522         0.324492   
     69. A(O   6,C   5,H  27)          109.9687         0.335225   
     70. A(O   6,C   5,H  26)          109.9565         0.335214   
     71. A(C   4,C   5,H  27)          109.8524         0.324502   
     72. A(C   5,O   6,C   7)          111.3431         0.393833   
     73. A(H  28,C   7,H  29)          107.8239         0.288640   
     74. A(C   8,C   7,H  29)          109.8263         0.324457   
     75. A(O   6,C   7,H  29)          110.2321         0.336133   
     76. A(C   8,C   7,H  28)          109.8339         0.324456   
     77. A(O   6,C   7,H  28)          110.2258         0.336132   
     78. A(O   6,C   7,C   8)          108.8900         0.380470   
     79. A(O   9,C   8,H  31)          110.0547         0.335615   
     80. A(H  30,C   8,H  31)          107.7176         0.288582   
     81. A(C   7,C   8,H  31)          109.8117         0.324425   
     82. A(O   9,C   8,H  30)          110.0596         0.335610   
     83. A(C   7,C   8,H  30)          109.8038         0.324420   
     84. A(C   7,C   8,O   9)          109.3745         0.379899   
     85. A(C   8,O   9,C  10)          111.2277         0.394105   
     86. A(C  11,C  10,H  33)          109.8434         0.324464   
     87. A(H  32,C  10,H  33)          107.8005         0.288620   
     88. A(C  11,C  10,H  32)          109.8414         0.324447   
     89. A(O   9,C  10,H  32)          110.1701         0.335934   
     90. A(O   9,C  10,H  33)          110.1831         0.335952   
     91. A(O   9,C  10,C  11)          108.9918         0.380275   
     92. A(H  34,C  11,H  35)          107.7520         0.288623   
     93. A(O  12,C  11,H  35)          110.1022         0.335753   
     94. A(C  10,C  11,H  35)          109.7994         0.324470   
     95. A(O  12,C  11,H  34)          110.0989         0.335727   
     96. A(C  10,C  11,H  34)          109.7822         0.324445   
     97. A(C  10,C  11,O  12)          109.2892         0.380033   
     98. A(C  11,O  12,C  13)          111.2473         0.394173   
     99. A(C  14,C  13,H  37)          109.8530         0.324444   
    100. A(O  12,C  13,H  37)          110.1834         0.335929   
    101. A(C  14,C  13,H  36)          109.8002         0.324297   
    102. A(O  12,C  13,H  36)          110.1388         0.335775   
    103. A(O  12,C  13,C  14)          109.0831         0.380164   
    104. A(H  36,C  13,H  37)          107.7698         0.288550   
    105. A(C  13,C  14,O  15)          109.2735         0.379938   
    106. A(H  38,C  14,H  39)          107.7694         0.288621   
    107. A(O  15,C  14,H  39)          110.1123         0.335700   
    108. A(C  13,C  14,H  39)          109.7918         0.324409   
    109. A(O  15,C  14,H  38)          110.1099         0.335708   
    110. A(C  13,C  14,H  38)          109.7673         0.324417   
    111. A(C  14,O  15,C  16)          111.2642         0.393810   
    112. A(H  40,C  16,H  41)          107.8214         0.288664   
    113. A(C  17,C  16,H  41)          109.8679         0.324311   
    114. A(O  15,C  16,H  41)          110.0905         0.335649   
    115. A(C  17,C  16,H  40)          109.8685         0.324339   
    116. A(O  15,C  16,H  40)          110.1037         0.335679   
    117. A(O  15,C  16,C  17)          109.0771         0.379719   
    118. A(H  42,C  17,H  43)          107.7160         0.288593   
    119. A(O  18,C  17,H  43)          110.0945         0.335746   
    120. A(C  16,C  17,H  43)          109.7391         0.324281   
    121. A(O  18,C  17,H  42)          110.0975         0.335751   
    122. A(C  16,C  17,H  42)          109.7498         0.324286   
    123. A(C  16,C  17,O  18)          109.4233         0.379870   
    124. A(C  17,O  18,C  19)          111.3349         0.395280   
    125. A(H  45,C  19,H  46)          110.1731         0.289410   
    126. A(H  44,C  19,H  46)          108.6632         0.289611   
    127. A(O  18,C  19,H  46)          110.4653         0.337255   
    128. A(H  44,C  19,H  45)          108.6643         0.289611   
    129. A(O  18,C  19,H  45)          110.4644         0.337255   
    130. A(O  18,C  19,H  44)          108.3506         0.337504   
    131. D(H  22,C   2,C   1,H  21)    -63.1333         0.011019   
    132. D(H  22,C   2,C   1,S   0)     60.4578         0.011019   
    133. D(H  23,C   2,C   1,H  20)     63.2334         0.011019   
    134. D(O   3,C   2,C   1,H  21)     56.4509         0.011019   
    135. D(H  23,C   2,C   1,H  21)    176.0420         0.011019   
    136. D(H  23,C   2,C   1,S   0)    -60.3668         0.011019   
    137. D(O   3,C   2,C   1,S   0)   -179.9579         0.011019   
    138. D(H  22,C   2,C   1,H  20)   -175.9419         0.011019   
    139. D(O   3,C   2,C   1,H  20)    -56.3577         0.011019   
    140. D(C   4,O   3,C   2,C   1)   -179.9278         0.017437   
    141. D(C   4,O   3,C   2,H  23)     59.1893         0.017437   
    142. D(C   4,O   3,C   2,H  22)    -59.0588         0.017437   
    143. D(H  25,C   4,O   3,C   2)    -59.4698         0.019308   
    144. D(H  24,C   4,O   3,C   2)     59.4798         0.019308   
    145. D(C   5,C   4,O   3,C   2)   -179.9955         0.019308   
    146. D(H  27,C   5,C   4,H  25)   -179.9532         0.011753   
    147. D(H  27,C   5,C   4,O   3)    -59.0874         0.011753   
    148. D(H  26,C   5,C   4,H  24)   -179.8926         0.011753   
    149. D(O   6,C   5,C   4,H  25)     59.2040         0.011753   
    150. D(H  26,C   5,C   4,H  25)    -61.6236         0.011753   
    151. D(O   6,C   5,C   4,H  24)    -59.0650         0.011753   
    152. D(H  27,C   5,C   4,H  24)     61.7778         0.011753   
    153. D(O   6,C   5,C   4,O   3)   -179.9302         0.011753   
    154. D(H  26,C   5,C   4,O   3)     59.2422         0.011753   
    155. D(C   7,O   6,C   5,C   4)    179.9919         0.018577   
    156. D(C   7,O   6,C   5,H  26)    -59.2439         0.018577   
    157. D(C   7,O   6,C   5,H  27)     59.2198         0.018577   
    158. D(H  29,C   7,O   6,C   5)    -59.3536         0.019188   
    159. D(H  28,C   7,O   6,C   5)     59.5575         0.019188   
    160. D(C   8,C   7,O   6,C   5)   -179.8953         0.019188   
    161. D(O   9,C   8,C   7,O   6)    179.9920         0.011724   
    162. D(H  31,C   8,C   7,H  28)     61.6478         0.011724   
    163. D(H  31,C   8,C   7,O   6)    -59.1404         0.011724   
    164. D(H  30,C   8,C   7,H  29)    -61.6679         0.011724   
    165. D(H  30,C   8,C   7,H  28)    179.9115         0.011724   
    166. D(H  30,C   8,C   7,O   6)     59.1233         0.011724   
    167. D(O   9,C   8,C   7,H  29)     59.2008         0.011724   
    168. D(H  31,C   8,C   7,H  29)   -179.9316         0.011724   
    169. D(O   9,C   8,C   7,H  28)    -59.2199         0.011724   
    170. D(C  10,O   9,C   8,H  31)     59.3190         0.018850   
    171. D(C  10,O   9,C   8,H  30)    -59.2483         0.018850   
    172. D(C  10,O   9,C   8,C   7)   -179.9612         0.018850   
    173. D(H  33,C  10,O   9,C   8)    -59.4053         0.019064   
    174. D(H  32,C  10,O   9,C   8)     59.4117         0.019064   
    175. D(C  11,C  10,O   9,C   8)    179.9980         0.019064   
    176. D(H  35,C  11,C  10,H  33)   -179.9543         0.011728   
    177. D(H  35,C  11,C  10,H  32)     61.6387         0.011728   
    178. D(H  35,C  11,C  10,O   9)    -59.1492         0.011728   
    179. D(H  34,C  11,C  10,H  33)    -61.6689         0.011728   
    180. D(H  34,C  11,C  10,H  32)    179.9241         0.011728   
    181. D(H  34,C  11,C  10,O   9)     59.1362         0.011728   
    182. D(O  12,C  11,C  10,H  33)     59.1810         0.011728   
    183. D(O  12,C  11,C  10,H  32)    -59.2260         0.011728   
    184. D(O  12,C  11,C  10,O   9)    179.9861         0.011728   
    185. D(C  13,O  12,C  11,H  35)     59.3249         0.018921   
    186. D(C  13,O  12,C  11,H  34)    -59.3381         0.018921   
    187. D(C  13,O  12,C  11,C  10)   -179.9950         0.018921   
    188. D(H  37,C  13,O  12,C  11)    -59.2837         0.019031   
    189. D(H  36,C  13,O  12,C  11)     59.4762         0.019031   
    190. D(C  14,C  13,O  12,C  11)   -179.9501         0.019031   
    191. D(O  15,C  14,C  13,H  37)     59.1161         0.011710   
    192. D(O  15,C  14,C  13,H  36)    -59.2343         0.011710   
    193. D(O  15,C  14,C  13,O  12)    179.9846         0.011710   
    194. D(H  39,C  14,C  13,H  37)    179.9787         0.011710   
    195. D(H  39,C  14,C  13,H  36)     61.6284         0.011710   
    196. D(H  39,C  14,C  13,O  12)    -59.1527         0.011710   
    197. D(H  38,C  14,C  13,H  37)    -61.7283         0.011710   
    198. D(H  38,C  14,C  13,H  36)    179.9214         0.011710   
    199. D(H  38,C  14,C  13,O  12)     59.1403         0.011710   
    200. D(C  16,O  15,C  14,H  39)     59.3395         0.018897   
    201. D(C  16,O  15,C  14,H  38)    -59.3579         0.018897   
    202. D(C  16,O  15,C  14,C  13)   -179.9933         0.018897   
    203. D(H  41,C  16,O  15,C  14)    -59.4431         0.018850   
    204. D(H  40,C  16,O  15,C  14)     59.3012         0.018850   
    205. D(C  17,C  16,O  15,C  14)    179.9335         0.018850   
    206. D(H  43,C  17,C  16,H  41)   -179.8601         0.011663   
    207. D(H  43,C  17,C  16,H  40)     61.6761         0.011663   
    208. D(H  43,C  17,C  16,O  15)    -59.1003         0.011663   
    209. D(H  42,C  17,C  16,H  41)    -61.6745         0.011663   
    210. D(H  42,C  17,C  16,H  40)    179.8617         0.011663   
    211. D(H  42,C  17,C  16,O  15)     59.0853         0.011663   
    212. D(O  18,C  17,C  16,H  41)     59.2378         0.011663   
    213. D(O  18,C  17,C  16,H  40)    -59.2259         0.011663   
    214. D(O  18,C  17,C  16,O  15)    179.9976         0.011663   
    215. D(C  19,O  18,C  17,H  43)     59.3004         0.018939   
    216. D(C  19,O  18,C  17,H  42)    -59.3126         0.018939   
    217. D(C  19,O  18,C  17,C  16)    179.9864         0.018939   
    218. D(H  46,C  19,O  18,C  17)    -61.0774         0.019649   
    219. D(H  45,C  19,O  18,C  17)     61.0736         0.019649   
    220. D(H  44,C  19,O  18,C  17)    179.9986         0.019649   
    -----------------------------------------------------------------

Number of atoms                         .... 47
Number of degrees of freedom            .... 220

         *************************************************************
         *                GEOMETRY OPTIMIZATION CYCLE   1            *
         *************************************************************
---------------------------------
CARTESIAN COORDINATES (ANGSTROEM)
---------------------------------
  S     -4.215780    2.362760   -1.815810
  C     -2.378700    2.320900   -1.785320
  C     -1.892090    1.160890   -0.911560
  O     -0.454850    1.149870   -0.902830
  C      0.038290    0.082040   -0.100590
  C      1.560260    0.109240   -0.120400
  O      2.066010   -0.960170    0.680980
  C      3.490490   -0.972240    0.690320
  C      3.968010   -2.130890    1.555270
  O      5.394670   -2.152760    1.571690
  C      5.885220   -3.225770    2.371590
  C      7.407570   -3.201500    2.353560
  O      7.905410   -4.273010    3.152750
  C      9.330920   -4.289270    3.165090
  C      9.808150   -5.449260    4.028700
  O     11.234520   -5.469550    4.043590
  C     11.728480   -6.543430    4.842890
  C     13.251610   -6.519450    4.822730
  O     13.753430   -7.590420    5.619920
  C     15.174740   -7.606260    5.629190
  H     -1.941550    3.250740   -1.399960
  H     -1.942410    2.206430   -2.785700
  H     -2.248640    0.200560   -1.305690
  H     -2.249070    1.274110    0.120170
  H     -0.319830   -0.880010   -0.486280
  H     -0.320460    0.184230    0.930750
  H      1.920680    1.070010    0.266810
  H      1.921190    0.008010   -1.151070
  H      3.875020   -0.026310    1.090150
  H      3.875460   -1.086540   -0.330090
  H      3.581850   -3.076550    1.155860
  H      3.581850   -2.016980    2.575450
  H      5.523570   -4.184620    1.981010
  H      5.523510   -3.125630    3.401970
  H      7.768130   -2.241780    2.743040
  H      7.768460   -3.300860    1.322850
  H      9.716040   -3.343690    3.566950
  H      9.716830   -4.401180    2.144880
  H      9.421800   -6.393870    3.627410
  H      9.421950   -5.336140    5.048860
  H     11.365680   -7.501640    4.452510
  H     11.367780   -6.442730    5.873550
  H     13.612310   -5.559370    5.211230
  H     13.609990   -6.617780    3.790870
  H     15.505530   -8.441900    6.251350
  H     15.564940   -6.676770    6.054900
  H     15.562390   -7.749180    4.615910

----------------------------
CARTESIAN COORDINATES (A.U.)
----------------------------
  NO LB      ZA    FRAG     MASS         X           Y           Z
   0 S    16.0000    0    32.060   -7.966670    4.464969   -3.431384
   1 C     6.0000    0    12.011   -4.495092    4.385865   -3.373766
   2 C     6.0000    0    12.011   -3.575532    2.193764   -1.722599
   3 O     8.0000    0    15.999   -0.859542    2.172939   -1.706101
   4 C     6.0000    0    12.011    0.072358    0.155033   -0.190088
   5 C     6.0000    0    12.011    2.948464    0.206434   -0.227523
   6 O     8.0000    0    15.999    3.904193   -1.814458    1.286866
   7 C     6.0000    0    12.011    6.596070   -1.837267    1.304516
   8 C     6.0000    0    12.011    7.498452   -4.026799    2.939034
   9 O     8.0000    0    15.999   10.194449   -4.068127    2.970064
  10 C     6.0000    0    12.011   11.121454   -6.095822    4.481656
  11 C     6.0000    0    12.011   13.998279   -6.049958    4.447584
  12 O     8.0000    0    15.999   14.939060   -8.074819    5.957834
  13 C     6.0000    0    12.011   17.632883   -8.105546    5.981153
  14 C     6.0000    0    12.011   18.534717  -10.297609    7.613140
  15 O     8.0000    0    15.999   21.230166  -10.335952    7.641278
  16 C     6.0000    0    12.011   22.163615  -12.365291    9.151736
  17 C     6.0000    0    12.011   25.041914  -12.319975    9.113639
  18 O     8.0000    0    15.999   25.990216  -14.343815   10.620110
  19 C     6.0000    0    12.011   28.676103  -14.373748   10.637627
  20 H     1.0000    0     1.008   -3.668998    6.143008   -2.645541
  21 H     1.0000    0     1.008   -3.670623    4.169548   -5.264210
  22 H     1.0000    0     1.008   -4.249314    0.379003   -2.467397
  23 H     1.0000    0     1.008   -4.250126    2.407719    0.227088
  24 H     1.0000    0     1.008   -0.604391   -1.662978   -0.918936
  25 H     1.0000    0     1.008   -0.605582    0.348144    1.758863
  26 H     1.0000    0     1.008    3.629559    2.022026    0.504198
  27 H     1.0000    0     1.008    3.630523    0.015137   -2.175207
  28 H     1.0000    0     1.008    7.322727   -0.049719    2.060085
  29 H     1.0000    0     1.008    7.323558   -2.053263   -0.623780
  30 H     1.0000    0     1.008    6.768716   -5.813837    2.184259
  31 H     1.0000    0     1.008    6.768716   -3.811540    4.866895
  32 H     1.0000    0     1.008   10.438035   -7.907786    3.743566
  33 H     1.0000    0     1.008   10.437921   -5.906585    6.428792
  34 H     1.0000    0     1.008   14.679638   -4.236350    5.183594
  35 H     1.0000    0     1.008   14.680262   -6.237721    2.499824
  36 H     1.0000    0     1.008   18.360655   -6.318658    6.740559
  37 H     1.0000    0     1.008   18.362148   -8.317025    4.053236
  38 H     1.0000    0     1.008   17.804622  -12.082663    6.854811
  39 H     1.0000    0     1.008   17.804905  -10.083843    9.540963
  40 H     1.0000    0     1.008   21.478023  -14.176045    8.414025
  41 H     1.0000    0     1.008   21.481991  -12.174995   11.099401
  42 H     1.0000    0     1.008   25.723538  -10.505687    9.847798
  43 H     1.0000    0     1.008   25.719154  -12.505792    7.163706
  44 H     1.0000    0     1.008   29.301205  -15.952879   11.813339
  45 H     1.0000    0     1.008   29.413474  -12.617267   11.442103
  46 H     1.0000    0     1.008   29.408655  -14.643828    8.722806

--------------------------------
INTERNAL COORDINATES (ANGSTROEM)
--------------------------------
 S      0   0   0     0.000000000000     0.00000000     0.00000000
 C      1   0   0     1.837809790512     0.00000000     0.00000000
 C      2   1   0     1.531623005116   110.13893849     0.00000000
 O      3   2   1     1.437308759766   109.08469082   180.04206185
 C      4   3   2     1.423740491136   110.82566362   180.07223858
 C      5   4   3     1.522341931696   108.99899505   180.00451026
 O      6   5   4     1.428856436105   109.46294226   180.06977475
 C      7   6   5     1.424561753979   111.34313844   179.99190260
 C      8   7   6     1.522706037093   108.89003885   180.10467240
 O      9   8   7     1.426922096297   109.37447196   179.99196997
 C     10   9   8     1.425422664546   111.22769919   180.03875799
 C     11  10   9     1.522650201556   108.99176320   179.99797463
 O     12  11  10     1.426423149630   109.28918886   179.98608323
 C     13  12  11     1.425656137819   111.24729979   180.00504510
 C     14  13  12     1.522874750300   109.08305258   180.04990991
 O     15  14  13     1.426592013541   109.27352473   179.98463537
 C     16  15  14     1.426918086647   111.26421281   180.00668227
 C     17  16  15     1.523452153138   109.07712807   179.93354369
 O     18  17  16     1.426293079770   109.42333152   179.99761570
 C     19  18  17     1.421428490850   111.33488534   179.98640009
 H      2   1   3     1.097362691957   112.62710758   238.92381300
 H      2   1   3     1.097366160131   112.62345301   121.06502241
 H      3   2   1     1.097588296357   110.76898738    60.45784993
 H      3   2   1     1.097597504416   110.78052287   299.63318437
 H      5   4   3     1.096607000251   110.28519463    59.47980893
 H      5   4   3     1.096725377750   110.28525873   300.53024121
 H      6   5   4     1.096773975530   109.85223227    59.24221629
 H      6   5   4     1.096721763575   109.85241470   300.91256231
 H      8   7   6     1.096590586637   110.22583267    59.55749223
 H      8   7   6     1.096586959160   110.23210606   300.64641334
 H      9   8   7     1.096777429244   109.80380129    59.12333802
 H      9   8   7     1.096750776658   109.81172675   300.85960442
 H     11  10   9     1.096693567684   110.17013591    59.41174353
 H     11  10   9     1.096606168184   110.18312302   300.59467772
 H     12  11  10     1.096704455357   109.78217130    59.13615790
 H     12  11  10     1.096575171067   109.79935384   300.85083604
 H     14  13  12     1.097237627135   110.13881370    59.47619143
 H     14  13  12     1.096484756073   110.18340865   300.71630053
 H     15  14  13     1.096625751430   109.76725652    59.14026946
 H     15  14  13     1.096664488346   109.79182366   300.84731118
 H     17  16  15     1.096442788521   110.10373751    59.30115216
 H     17  16  15     1.096587896887   110.09052534   300.55694577
 H     18  17  16     1.096717988546   109.74975158    59.08527997
 H     18  17  16     1.096740658907   109.73912945   300.89967461
 H     20  19  18     1.093068753236   108.35061824   179.99855996
 H     20  19  18     1.094274510441   110.46438493    61.07363870
 H     20  19  18     1.094273735086   110.46531211   298.92261515

---------------------------
INTERNAL COORDINATES (A.U.)
---------------------------
 S      0   0   0     0.000000000000     0.00000000     0.00000000
 C      1   0   0     3.472957190306     0.00000000     0.00000000
 C      2   1   0     2.894348020082   110.13893849     0.00000000
 O      3   2   1     2.716119925844   109.08469082   180.04206185
 C      4   3   2     2.690479614021   110.82566362   180.07223858
 C      5   4   3     2.876809333090   108.99899505   180.00451026
 O      6   5   4     2.700147348930   109.46294226   180.06977475
 C      7   6   5     2.692031575879   111.34313844   179.99190260
 C      8   7   6     2.877497392575   108.89003885   180.10467240
 O      9   8   7     2.696491976442   109.37447196   179.99196997
 C     10   9   8     2.693658461075   111.22769919   180.03875799
 C     11  10   9     2.877391878702   108.99176320   179.99797463
 O     12  11  10     2.695549103886   109.28918886   179.98608323
 C     13  12  11     2.694099661621   111.24729979   180.00504510
 C     14  13  12     2.877816214330   109.08305258   180.04990991
 O     15  14  13     2.695868210432   109.27352473   179.98463537
 C     16  15  14     2.696484399302   111.26421281   180.00668227
 C     17  16  15     2.878907347563   109.07712807   179.93354369
 O     18  17  16     2.695303307473   109.42333152   179.99761570
 C     19  18  17     2.686110566659   111.33488534   179.98640009
 H      2   1   3     2.073714957382   112.62710758   238.92381300
 H      2   1   3     2.073721511280   112.62345301   121.06502241
 H      3   2   1     2.074141287912   110.76898738    60.45784993
 H      3   2   1     2.074158688621   110.78052287   299.63318437
 H      5   4   3     2.072286907016   110.28519463    59.47980893
 H      5   4   3     2.072510608068   110.28525873   300.53024121
 H      6   5   4     2.072602444564   109.85223227    59.24221629
 H      6   5   4     2.072503778269   109.85241470   300.91256231
 H      8   7   6     2.072255889779   110.22583267    59.55749223
 H      8   7   6     2.072249034842   110.23210606   300.64641334
 H      9   8   7     2.072608971138   109.80380129    59.12333802
 H      9   8   7     2.072558605049   109.81172675   300.85960442
 H     11  10   9     2.072450495756   110.17013591    59.41174353
 H     11  10   9     2.072285334637   110.18312302   300.59467772
 H     12  11  10     2.072471070476   109.78217130    59.13615790
 H     12  11  10     2.072226758574   109.79935384   300.85083604
 H     14  13  12     2.073478619118   110.13881370    59.47619143
 H     14  13  12     2.072055898997   110.18340865   300.71630053
 H     15  14  13     2.072322341609   109.76725652    59.14026946
 H     15  14  13     2.072395543772   109.79182366   300.84731118
 H     17  16  15     2.071976591818   110.10373751    59.30115216
 H     17  16  15     2.072250806890   110.09052534   300.55694577
 H     18  17  16     2.072496644497   109.74975158    59.08527997
 H     18  17  16     2.072539485271   109.73912945   300.89967461
 H     20  19  18     2.065600589162   108.35061824   179.99855996
 H     20  19  18     2.067879140063   110.46438493    61.07363870
 H     20  19  18     2.067877674856   110.46531211   298.92261515

---------------------
BASIS SET INFORMATION
---------------------
There are 4 groups of distinct atoms

 Group   1 Type S   : 17s11p1d contracted to 5s4p1d pattern {66311/6311/1}
 Group   2 Type C   : 11s5p1d contracted to 4s3p1d pattern {6311/311/1}
 Group   3 Type O   : 11s5p1d contracted to 4s3p1d pattern {6311/311/1}
 Group   4 Type H   : 4s1p contracted to 2s1p pattern {31/1}

Atom   0S    basis set group =>   1
Atom   1C    basis set group =>   2
Atom   2C    basis set group =>   2
Atom   3O    basis set group =>   3
Atom   4C    basis set group =>   2
Atom   5C    basis set group =>   2
Atom   6O    basis set group =>   3
Atom   7C    basis set group =>   2
Atom   8C    basis set group =>   2
Atom   9O    basis set group =>   3
Atom  10C    basis set group =>   2
Atom  11C    basis set group =>   2
Atom  12O    basis set group =>   3
Atom  13C    basis set group =>   2
Atom  14C    basis set group =>   2
Atom  15O    basis set group =>   3
Atom  16C    basis set group =>   2
Atom  17C    basis set group =>   2
Atom  18O    basis set group =>   3
Atom  19C    basis set group =>   2
Atom  20H    basis set group =>   4
Atom  21H    basis set group =>   4
Atom  22H    basis set group =>   4
Atom  23H    basis set group =>   4
Atom  24H    basis set group =>   4
Atom  25H    basis set group =>   4
Atom  26H    basis set group =>   4
Atom  27H    basis set group =>   4
Atom  28H    basis set group =>   4
Atom  29H    basis set group =>   4
Atom  30H    basis set group =>   4
Atom  31H    basis set group =>   4
Atom  32H    basis set group =>   4
Atom  33H    basis set group =>   4
Atom  34H    basis set group =>   4
Atom  35H    basis set group =>   4
Atom  36H    basis set group =>   4
Atom  37H    basis set group =>   4
Atom  38H    basis set group =>   4
Atom  39H    basis set group =>   4
Atom  40H    basis set group =>   4
Atom  41H    basis set group =>   4
Atom  42H    basis set group =>   4
Atom  43H    basis set group =>   4
Atom  44H    basis set group =>   4
Atom  45H    basis set group =>   4
Atom  46H    basis set group =>   4
[file orca_main/mainfcts.cpp, line 334]: Error : multiplicity (1) is odd and number of electrons (169) is odd -> impossible

