
                                 *****************
                                 * O   R   C   A *
                                 *****************

           --- An Ab Initio, DFT and Semiempirical electronic structure package ---

                  #######################################################
                  #                        -***-                        #
                  #  Department of molecular theory and spectroscopy    #
                  #              Directorship: Frank Neese              #
                  # Max Planck Institute for Chemical Energy Conversion #
                  #                  D-45470 Muelheim/Ruhr              #
                  #                       Germany                       #
                  #                                                     #
                  #                  All rights reserved                #
                  #                        -***-                        #
                  #######################################################


                         Program Version 4.0.1.2 - RELEASE -


 With contributions from (in alphabetic order):
   Daniel Aravena         : Magnetic Properties
   Michael Atanasov       : Ab Initio Ligand Field Theory
   Ute Becker             : Parallelization
   Martin Brehm           : Molecular dynamics
   Dmytro Bykov           : SCF Hessian
   Vijay G. Chilkuri      : MRCI spin determinant printing
   Dipayan Datta          : RHF DLPNO-CCSD density
   Achintya Kumar Dutta   : EOM-CC, STEOM-CC
   Dmitry Ganyushin       : Spin-Orbit,Spin-Spin,Magnetic field MRCI
   Yang Guo               : DLPNO-NEVPT2, CIM, IAO-localization
   Andreas Hansen         : Spin unrestricted coupled pair/coupled cluster methods
   Lee Huntington         : MR-EOM, pCC
   Robert Izsak           : Overlap fitted RIJCOSX, COSX-SCS-MP3, EOM
   Christian Kollmar      : KDIIS, OOCD, Brueckner-CCSD(T), CCSD density
   Simone Kossmann        : Meta GGA functionals, TD-DFT gradient, OOMP2, MP2 Hessian
   Martin Krupicka        : AUTO-CI
   Dagmar Lenk            : GEPOL surface
   Dimitrios Liakos       : Extrapolation schemes; parallel MDCI
   Dimitrios Manganas     : ROCIS; embedding schemes
   Dimitrios Pantazis     : SARC Basis sets
   Taras Petrenko         : DFT Hessian,TD-DFT gradient, ASA, ECA, R-Raman, ABS, FL, XAS/XES, NRVS
   Peter Pinski           : DLPNO-MP2
   Christoph Reimann      : Effective Core Potentials
   Marius Retegan         : Local ZFS, SOC
   Christoph Riplinger    : Optimizer, TS searches, QM/MM, DLPNO-CCSD(T), (RO)-DLPNO pert. Triples
   Tobias Risthaus        : Range-separated hybrids, TD-DFT gradient, RPA, STAB
   Michael Roemelt        : Restricted open shell CIS
   Masaaki Saitow         : Open-shell DLPNO
   Barbara Sandhoefer     : DKH picture change effects
   Kantharuban Sivalingam : CASSCF convergence, NEVPT2, FIC-MRCI
   Georgi Stoychev        : AutoAux
   Boris Wezisla          : Elementary symmetry handling
   Frank Wennmohs         : Technical directorship


 We gratefully acknowledge several colleagues who have allowed us to
 interface, adapt or use parts of their codes:
   Stefan Grimme, W. Hujo, H. Kruse,             : VdW corrections, initial TS optimization,
                  C. Bannwarth                     DFT functionals, gCP, sTDA/sTD-DF
   Ed Valeev                                     : LibInt (2-el integral package), F12 methods
   Garnet Chan, S. Sharma, J. Yang, R. Olivares  : DMRG
   Ulf Ekstrom                                   : XCFun DFT Library
   Mihaly Kallay                                 : mrcc  (arbitrary order and MRCC methods)
   Andreas Klamt, Michael Diedenhofen            : otool_cosmo (COSMO solvation model)
   Jiri Pittner, Ondrej Demel                    : Mk-CCSD
   Frank Weinhold                                : gennbo (NPA and NBO analysis)
   Christopher J. Cramer and Donald G. Truhlar   : smd solvation model


 Your calculation uses the libint2 library for the computation of 2-el integrals
 For citations please refer to: http://libint.valeyev.net

 This ORCA versions uses:
   CBLAS   interface :  Fast vector & matrix operations
   LAPACKE interface :  Fast linear algebra routines
   SCALAPACK package :  Parallel linear algebra routines


Your calculation utilizes the basis: 6-31+G**
   H-He, Li-Ne : W. J. Hehre, R. Ditchfield and J.A. Pople, J. Chem. Phys. 56, 2257 (1972).
                 Note: He and Ne are unpublished basis sets taken from the Gaussian program.
                 Note: Li and B from J. D. Dill and J. A. Pople, J. Chem. Phys. 62, 2921 (1975).
   Na - Ar     : M. M. Francl, W. J. Pietro, W. J. Hehre, J. S. Binkley, M. S. Gordon, 
                 D. J. DeFrees and J. A. Pople, J. Chem. Phys. 77, 3654 (1982).
   K - Zn      : V. A. Rassolov, J. A. Pople, M. A. Ratner, and T. L. Windus, J. Chem. Phys. 109, 1223 (1998).
   Additional Pol./Diff. from the 6-311G equivalent.

================================================================================
                                        WARNINGS
                       Please study these warnings very carefully!
================================================================================

Warning: TCutStore was < 0. Adjusted to Thresh (uncritical)

WARNING: Geometry Optimization
  ===> : Switching off AutoStart
         For restart on a previous wavefunction, please use MOREAD

INFO   : the flag for use of LIBINT has been found!

================================================================================
                                       INPUT FILE
================================================================================
NAME = OEG6.inp
|  1> ! RKS B3LYP 6-31+G** NormalSCF Opt NOSOSCF CHELPG
|  2> 
|  3> *xyz 0 1
|  4> S 2.88299 -4.27124 0.42226
|  5> C 2.88299 -2.43344 0.42226
|  6> C 1.46204 -1.90622 0.20201
|  7> O 1.48837 -0.46916 0.20707
|  8> C 0.18227 0.06194 0.00636
|  9> C 0.25828 1.58264 0.01945
| 10> O -1.04792 2.12670 -0.17962
| 11> C -1.02268 3.55117 -0.17346
| 12> C -2.43825 4.07049 -0.38680
| 13> O -2.42517 5.49745 -0.38241
| 14> C -3.73439 6.02619 -0.57833
| 15> C -3.66231 7.54694 -0.56453
| 16> O -4.97002 8.08234 -0.75973
| 17> C -4.95113 9.50800 -0.75575
| 18> C -6.36778 10.02537 -0.96717
| 19> O -6.35334 11.45193 -0.96596
| 20> C -7.66301 11.98351 -1.16122
| 21> C -7.58957 13.50516 -1.15324
| 22> O -8.89525 14.04532 -1.34828
| 23> C -8.87295 15.46619 -1.34788
| 24> H 3.53259 -2.01130 -0.35492
| 25> H 3.26668 -2.01132 1.35970
| 26> H 0.79150 -2.24823 1.00073
| 27> H 1.06543 -2.24695 -0.76304
| 28> H -0.49337 -0.28167 0.79843
| 29> H -0.22364 -0.28001 -0.95314
| 30> H 0.93283 1.92882 -0.77299
| 31> H 0.66504 1.92671 0.97805
| 32> H -0.36652 3.92183 -0.97006
| 33> H -0.63157 3.91943 0.78242
| 34> H -3.09453 3.69812 0.40920
| 35> H -2.82978 3.70104 -1.34237
| 36> H -4.40560 5.67823 0.21606
| 37> H -4.14204 5.68160 -1.53633
| 38> H -2.99044 7.89416 -1.35876
| 39> H -3.25352 7.89080 0.39329
| 40> H -4.29638 9.87909 -1.55342
| 41> H -4.55839 9.87771 0.19909
| 42> H -7.02153 9.65418 -0.16871
| 43> H -6.76033 9.65314 -1.92114
| 44> H -8.33229 11.63838 -0.36401
| 45> H -8.07248 11.63511 -2.11703
| 46> H -6.91785 13.84780 -1.94959
| 47> H -7.17789 13.85117 -0.19741
| 48> H -9.89337 15.82630 -1.50002
| 49> H -8.24508 15.83926 -2.16290
| 50> H -8.50869 15.84283 -0.38715
| 51> **                         ****END OF INPUT****
================================================================================

                       *****************************
                       * Geometry Optimization Run *
                       *****************************

Geometry optimization settings:
Update method            Update   .... BFGS
Choice of coordinates    CoordSys .... Redundant Internals
Initial Hessian          InHess   .... Almoef's Model

Convergence Tolerances:
Energy Change            TolE     ....  5.0000e-06 Eh
Max. Gradient            TolMAXG  ....  3.0000e-04 Eh/bohr
RMS Gradient             TolRMSG  ....  1.0000e-04 Eh/bohr
Max. Displacement        TolMAXD  ....  4.0000e-03 bohr
RMS Displacement         TolRMSD  ....  2.0000e-03 bohr

------------------------------------------------------------------------------
                        ORCA OPTIMIZATION COORDINATE SETUP
------------------------------------------------------------------------------

The optimization will be done in new redundant internal coordinates
Making redundant internal coordinates   ...  (new redundants) done
Evaluating the initial hessian          ...  (Almloef) done
Evaluating the coordinates              ...  done
Calculating the B-matrix                .... done
Calculating the G-matrix                .... done
Diagonalizing the G-matrix              .... done
Small eigenvalue found = 2.963e-04
Small eigenvalue found = 1.293e-03
Small eigenvalue found = 2.061e-03
Small eigenvalue found = 7.029e-03
Small eigenvalue found = 8.728e-03
Small eigenvalue found = 8.953e-03
Small eigenvalue found = 1.146e-02
Small eigenvalue found = 1.714e-02
The first mode is                       ....   85
The number of degrees of freedom        ....  135

    -----------------------------------------------------------------
                    Redundant Internal Coordinates


    -----------------------------------------------------------------
         Definition                    Initial Value    Approx d2E/dq
    -----------------------------------------------------------------
      1. B(C   1,S   0)                  1.8378         0.325140   
      2. B(C   2,C   1)                  1.5315         0.371487   
      3. B(O   3,C   2)                  1.4373         0.470322   
      4. B(C   4,O   3)                  1.4242         0.493589   
      5. B(C   5,C   4)                  1.5227         0.383792   
      6. B(O   6,C   5)                  1.4289         0.485059   
      7. B(C   7,O   6)                  1.4247         0.492610   
      8. B(C   8,C   7)                  1.5228         0.383529   
      9. B(O   9,C   8)                  1.4270         0.488429   
     10. B(C  10,O   9)                  1.4255         0.491203   
     11. B(C  11,C  10)                  1.5225         0.383983   
     12. B(O  12,C  11)                  1.4265         0.489401   
     13. B(C  13,O  12)                  1.4258         0.490652   
     14. B(C  14,C  13)                  1.5229         0.383427   
     15. B(O  15,C  14)                  1.4266         0.489135   
     16. B(C  16,O  15)                  1.4269         0.488722   
     17. B(C  17,C  16)                  1.5234         0.382684   
     18. B(O  18,C  17)                  1.4264         0.489557   
     19. B(C  19,O  18)                  1.4210         0.499281   
     20. B(H  20,C   1)                  1.0974         0.350499   
     21. B(H  21,C   1)                  1.0974         0.350495   
     22. B(H  22,C   2)                  1.0975         0.350289   
     23. B(H  23,C   2)                  1.0976         0.350190   
     24. B(H  24,C   4)                  1.0963         0.351827   
     25. B(H  25,C   4)                  1.0965         0.351591   
     26. B(H  26,C   5)                  1.0967         0.351305   
     27. B(H  27,C   5)                  1.0967         0.351344   
     28. B(H  28,C   7)                  1.0966         0.351489   
     29. B(H  29,C   7)                  1.0965         0.351617   
     30. B(H  30,C   8)                  1.0968         0.351211   
     31. B(H  31,C   8)                  1.0968         0.351255   
     32. B(H  32,C  10)                  1.0967         0.351402   
     33. B(H  33,C  10)                  1.0967         0.351384   
     34. B(H  34,C  11)                  1.0967         0.351332   
     35. B(H  35,C  11)                  1.0967         0.351335   
     36. B(H  36,C  13)                  1.0967         0.351385   
     37. B(H  37,C  13)                  1.0967         0.351405   
     38. B(H  38,C  14)                  1.0967         0.351369   
     39. B(H  39,C  14)                  1.0967         0.351369   
     40. B(H  40,C  16)                  1.0966         0.351437   
     41. B(H  41,C  16)                  1.0966         0.351421   
     42. B(H  42,C  17)                  1.0967         0.351326   
     43. B(H  43,C  17)                  1.0967         0.351308   
     44. B(H  44,C  19)                  1.0927         0.356492   
     45. B(H  45,C  19)                  1.0944         0.354357   
     46. B(H  46,C  19)                  1.0943         0.354425   
     47. A(C   2,C   1,H  21)          108.3510         0.322587   
     48. A(S   0,C   1,C   2)          110.1357         0.373167   
     49. A(H  20,C   1,H  21)          104.4811         0.288385   
     50. A(S   0,C   1,H  20)          112.6244         0.331559   
     51. A(S   0,C   1,H  21)          112.6232         0.331558   
     52. A(C   2,C   1,H  20)          108.3578         0.322587   
     53. A(C   1,C   2,H  22)          110.7883         0.322556   
     54. A(O   3,C   2,H  23)          108.6686         0.333322   
     55. A(C   1,C   2,H  23)          110.7833         0.322541   
     56. A(H  22,C   2,H  23)          108.8059         0.288319   
     57. A(C   1,C   2,O   3)          109.0675         0.375290   
     58. A(O   3,C   2,H  22)          108.6748         0.333338   
     59. A(C   2,O   3,C   4)          110.8277         0.391798   
     60. A(H  24,C   4,H  25)          107.8380         0.288697   
     61. A(C   5,C   4,H  24)          109.7289         0.324518   
     62. A(O   3,C   4,H  25)          110.2746         0.336230   
     63. A(O   3,C   4,H  24)          110.2725         0.336268   
     64. A(O   3,C   4,C   5)          108.9928         0.380579   
     65. A(C   5,C   4,H  25)          109.7219         0.324482   
     66. A(C   4,C   5,O   6)          109.4772         0.379430   
     67. A(H  26,C   5,H  27)          107.7228         0.288598   
     68. A(C   4,C   5,H  26)          109.8606         0.324439   
     69. A(O   6,C   5,H  27)          109.9599         0.335218   
     70. A(O   6,C   5,H  26)          109.9616         0.335211   
     71. A(C   4,C   5,H  27)          109.8378         0.324445   
     72. A(C   5,O   6,C   7)          111.3394         0.393782   
     73. A(H  28,C   7,H  29)          107.8379         0.288657   
     74. A(C   8,C   7,H  29)          109.8258         0.324450   
     75. A(O   6,C   7,H  29)          110.2359         0.336123   
     76. A(C   8,C   7,H  28)          109.8268         0.324430   
     77. A(O   6,C   7,H  28)          110.2072         0.336103   
     78. A(O   6,C   7,C   8)          108.8983         0.380402   
     79. A(O   9,C   8,H  31)          110.0469         0.335590   
     80. A(H  30,C   8,H  31)          107.7187         0.288574   
     81. A(C   7,C   8,H  31)          109.8173         0.324395   
     82. A(O   9,C   8,H  30)          110.0439         0.335583   
     83. A(C   7,C   8,H  30)          109.8012         0.324388   
     84. A(C   7,C   8,O   9)          109.3934         0.379841   
     85. A(C   8,O   9,C  10)          111.2268         0.394063   
     86. A(C  11,C  10,H  33)          109.8382         0.324477   
     87. A(H  32,C  10,H  33)          107.7926         0.288615   
     88. A(C  11,C  10,H  32)          109.8363         0.324480   
     89. A(O   9,C  10,H  32)          110.1747         0.335929   
     90. A(O   9,C  10,H  33)          110.1764         0.335926   
     91. A(O   9,C  10,C  11)          109.0117         0.380292   
     92. A(H  34,C  11,H  35)          107.7499         0.288600   
     93. A(O  12,C  11,H  35)          110.0925         0.335713   
     94. A(C  10,C  11,H  35)          109.7999         0.324470   
     95. A(O  12,C  11,H  34)          110.1016         0.335713   
     96. A(C  10,C  11,H  34)          109.7960         0.324470   
     97. A(C  10,C  11,O  12)          109.2840         0.380049   
     98. A(C  11,O  12,C  13)          111.2702         0.394123   
     99. A(C  14,C  13,H  37)          109.8453         0.324403   
    100. A(O  12,C  13,H  37)          110.1372         0.335867   
    101. A(C  14,C  13,H  36)          109.8430         0.324400   
    102. A(O  12,C  13,H  36)          110.1347         0.335864   
    103. A(O  12,C  13,C  14)          109.0856         0.380122   
    104. A(H  36,C  13,H  37)          107.7828         0.288616   
    105. A(C  13,C  14,O  15)          109.2793         0.379918   
    106. A(H  38,C  14,H  39)          107.7623         0.288609   
    107. A(O  15,C  14,H  39)          110.1060         0.335688   
    108. A(C  13,C  14,H  39)          109.7807         0.324398   
    109. A(O  15,C  14,H  38)          110.1126         0.335688   
    110. A(C  13,C  14,H  38)          109.7832         0.324398   
    111. A(C  14,O  15,C  16)          111.2923         0.393813   
    112. A(H  40,C  16,H  41)          107.8028         0.288625   
    113. A(C  17,C  16,H  41)          109.8701         0.324303   
    114. A(O  15,C  16,H  41)          110.0983         0.335650   
    115. A(C  17,C  16,H  40)          109.8745         0.324305   
    116. A(O  15,C  16,H  40)          110.0872         0.335652   
    117. A(O  15,C  16,C  17)          109.0958         0.379735   
    118. A(H  42,C  17,H  43)          107.7197         0.288596   
    119. A(O  18,C  17,H  43)          110.0780         0.335727   
    120. A(C  16,C  17,H  43)          109.7418         0.324285   
    121. A(O  18,C  17,H  42)          110.0628         0.335730   
    122. A(C  16,C  17,H  42)          109.7416         0.324288   
    123. A(C  16,C  17,O  18)          109.4752         0.379847   
    124. A(C  17,O  18,C  19)          111.3607         0.395351   
    125. A(H  45,C  19,H  46)          110.2134         0.289385   
    126. A(H  44,C  19,H  46)          108.6413         0.289657   
    127. A(O  18,C  19,H  46)          110.4631         0.337324   
    128. A(H  44,C  19,H  45)          108.6462         0.289648   
    129. A(O  18,C  19,H  45)          110.4658         0.337313   
    130. A(O  18,C  19,H  44)          108.3496         0.337651   
    131. D(H  22,C   2,C   1,H  21)    -63.2105         0.011027   
    132. D(H  22,C   2,C   1,S   0)     60.3821         0.011027   
    133. D(H  23,C   2,C   1,H  20)     63.1241         0.011027   
    134. D(O   3,C   2,C   1,H  21)     56.3666         0.011027   
    135. D(H  23,C   2,C   1,H  21)    175.9329         0.011027   
    136. D(H  23,C   2,C   1,S   0)    -60.4745         0.011027   
    137. D(O   3,C   2,C   1,S   0)    179.9592         0.011027   
    138. D(H  22,C   2,C   1,H  20)   -176.0193         0.011027   
    139. D(O   3,C   2,C   1,H  20)    -56.4422         0.011027   
    140. D(C   4,O   3,C   2,C   1)   -179.9274         0.017437   
    141. D(C   4,O   3,C   2,H  23)     59.2043         0.017437   
    142. D(C   4,O   3,C   2,H  22)    -59.0492         0.017437   
    143. D(H  25,C   4,O   3,C   2)    -59.5085         0.019246   
    144. D(H  24,C   4,O   3,C   2)     59.4758         0.019246   
    145. D(C   5,C   4,O   3,C   2)    179.9873         0.019246   
    146. D(H  27,C   5,C   4,H  25)   -179.9426         0.011728   
    147. D(H  27,C   5,C   4,O   3)    -59.0992         0.011728   
    148. D(H  26,C   5,C   4,H  24)   -179.9340         0.011728   
    149. D(O   6,C   5,C   4,H  25)     59.2257         0.011728   
    150. D(H  26,C   5,C   4,H  25)    -61.6224         0.011728   
    151. D(O   6,C   5,C   4,H  24)    -59.0859         0.011728   
    152. D(H  27,C   5,C   4,H  24)     61.7458         0.011728   
    153. D(O   6,C   5,C   4,O   3)   -179.9309         0.011728   
    154. D(H  26,C   5,C   4,O   3)     59.2209         0.011728   
    155. D(C   7,O   6,C   5,C   4)    179.9607         0.018569   
    156. D(C   7,O   6,C   5,H  26)    -59.2525         0.018569   
    157. D(C   7,O   6,C   5,H  27)     59.2031         0.018569   
    158. D(H  29,C   7,O   6,C   5)    -59.3525         0.019167   
    159. D(H  28,C   7,O   6,C   5)     59.5665         0.019167   
    160. D(C   8,C   7,O   6,C   5)   -179.9013         0.019167   
    161. D(O   9,C   8,C   7,O   6)    179.9972         0.011712   
    162. D(H  31,C   8,C   7,H  28)     61.6367         0.011712   
    163. D(H  31,C   8,C   7,O   6)    -59.1293         0.011712   
    164. D(H  30,C   8,C   7,H  29)    -61.6632         0.011712   
    165. D(H  30,C   8,C   7,H  28)    179.9036         0.011712   
    166. D(H  30,C   8,C   7,O   6)     59.1376         0.011712   
    167. D(O   9,C   8,C   7,H  29)     59.1965         0.011712   
    168. D(H  31,C   8,C   7,H  29)   -179.9301         0.011712   
    169. D(O   9,C   8,C   7,H  28)    -59.2367         0.011712   
    170. D(C  10,O   9,C   8,H  31)     59.3221         0.018835   
    171. D(C  10,O   9,C   8,H  30)    -59.2321         0.018835   
    172. D(C  10,O   9,C   8,C   7)   -179.9441         0.018835   
    173. D(H  33,C  10,O   9,C   8)    -59.4162         0.019055   
    174. D(H  32,C  10,O   9,C   8)     59.3897         0.019055   
    175. D(C  11,C  10,O   9,C   8)    179.9850         0.019055   
    176. D(H  35,C  11,C  10,H  33)   -179.9361         0.011739   
    177. D(H  35,C  11,C  10,H  32)     61.6729         0.011739   
    178. D(H  35,C  11,C  10,O   9)    -59.1299         0.011739   
    179. D(H  34,C  11,C  10,H  33)    -61.6446         0.011739   
    180. D(H  34,C  11,C  10,H  32)    179.9643         0.011739   
    181. D(H  34,C  11,C  10,O   9)     59.1616         0.011739   
    182. D(O  12,C  11,C  10,H  33)     59.2140         0.011739   
    183. D(O  12,C  11,C  10,H  32)    -59.1770         0.011739   
    184. D(O  12,C  11,C  10,O   9)   -179.9798         0.011739   
    185. D(C  13,O  12,C  11,H  35)     59.3989         0.018912   
    186. D(C  13,O  12,C  11,H  34)    -59.2572         0.018912   
    187. D(C  13,O  12,C  11,C  10)   -179.9296         0.018912   
    188. D(H  37,C  13,O  12,C  11)    -59.3665         0.019011   
    189. D(H  36,C  13,O  12,C  11)     59.3781         0.019011   
    190. D(C  14,C  13,O  12,C  11)   -179.9964         0.019011   
    191. D(O  15,C  14,C  13,H  37)     59.2800         0.011707   
    192. D(O  15,C  14,C  13,H  36)    -59.1074         0.011707   
    193. D(O  15,C  14,C  13,O  12)   -179.9114         0.011707   
    194. D(H  39,C  14,C  13,H  37)   -179.8684         0.011707   
    195. D(H  39,C  14,C  13,H  36)     61.7442         0.011707   
    196. D(H  39,C  14,C  13,O  12)    -59.0598         0.011707   
    197. D(H  38,C  14,C  13,H  37)    -61.5812         0.011707   
    198. D(H  38,C  14,C  13,H  36)   -179.9685         0.011707   
    199. D(H  38,C  14,C  13,O  12)     59.2274         0.011707   
    200. D(C  16,O  15,C  14,H  39)     59.3566         0.018891   
    201. D(C  16,O  15,C  14,H  38)    -59.3299         0.018891   
    202. D(C  16,O  15,C  14,C  13)   -179.9902         0.018891   
    203. D(H  41,C  16,O  15,C  14)    -59.2806         0.018858   
    204. D(H  40,C  16,O  15,C  14)     59.4353         0.018858   
    205. D(C  17,C  16,O  15,C  14)   -179.9233         0.018858   
    206. D(H  43,C  17,C  16,H  41)   -179.8814         0.011663   
    207. D(H  43,C  17,C  16,H  40)     61.6725         0.011663   
    208. D(H  43,C  17,C  16,O  15)    -59.0990         0.011663   
    209. D(H  42,C  17,C  16,H  41)    -61.6945         0.011663   
    210. D(H  42,C  17,C  16,H  40)    179.8594         0.011663   
    211. D(H  42,C  17,C  16,O  15)     59.0879         0.011663   
    212. D(O  18,C  17,C  16,H  41)     59.2026         0.011663   
    213. D(O  18,C  17,C  16,H  40)    -59.2435         0.011663   
    214. D(O  18,C  17,C  16,O  15)    179.9850         0.011663   
    215. D(C  19,O  18,C  17,H  43)     59.2957         0.018924   
    216. D(C  19,O  18,C  17,H  42)    -59.2904         0.018924   
    217. D(C  19,O  18,C  17,C  16)   -179.9925         0.018924   
    218. D(H  46,C  19,O  18,C  17)    -61.0957         0.019706   
    219. D(H  45,C  19,O  18,C  17)     61.1057         0.019706   
    220. D(H  44,C  19,O  18,C  17)   -179.9912         0.019706   
    -----------------------------------------------------------------

Number of atoms                         .... 47
Number of degrees of freedom            .... 220

         *************************************************************
         *                GEOMETRY OPTIMIZATION CYCLE   1            *
         *************************************************************
---------------------------------
CARTESIAN COORDINATES (ANGSTROEM)
---------------------------------
  S      2.882990   -4.271240    0.422260
  C      2.882990   -2.433440    0.422260
  C      1.462040   -1.906220    0.202010
  O      1.488370   -0.469160    0.207070
  C      0.182270    0.061940    0.006360
  C      0.258280    1.582640    0.019450
  O     -1.047920    2.126700   -0.179620
  C     -1.022680    3.551170   -0.173460
  C     -2.438250    4.070490   -0.386800
  O     -2.425170    5.497450   -0.382410
  C     -3.734390    6.026190   -0.578330
  C     -3.662310    7.546940   -0.564530
  O     -4.970020    8.082340   -0.759730
  C     -4.951130    9.508000   -0.755750
  C     -6.367780   10.025370   -0.967170
  O     -6.353340   11.451930   -0.965960
  C     -7.663010   11.983510   -1.161220
  C     -7.589570   13.505160   -1.153240
  O     -8.895250   14.045320   -1.348280
  C     -8.872950   15.466190   -1.347880
  H      3.532590   -2.011300   -0.354920
  H      3.266680   -2.011320    1.359700
  H      0.791500   -2.248230    1.000730
  H      1.065430   -2.246950   -0.763040
  H     -0.493370   -0.281670    0.798430
  H     -0.223640   -0.280010   -0.953140
  H      0.932830    1.928820   -0.772990
  H      0.665040    1.926710    0.978050
  H     -0.366520    3.921830   -0.970060
  H     -0.631570    3.919430    0.782420
  H     -3.094530    3.698120    0.409200
  H     -2.829780    3.701040   -1.342370
  H     -4.405600    5.678230    0.216060
  H     -4.142040    5.681600   -1.536330
  H     -2.990440    7.894160   -1.358760
  H     -3.253520    7.890800    0.393290
  H     -4.296380    9.879090   -1.553420
  H     -4.558390    9.877710    0.199090
  H     -7.021530    9.654180   -0.168710
  H     -6.760330    9.653140   -1.921140
  H     -8.332290   11.638380   -0.364010
  H     -8.072480   11.635110   -2.117030
  H     -6.917850   13.847800   -1.949590
  H     -7.177890   13.851170   -0.197410
  H     -9.893370   15.826300   -1.500020
  H     -8.245080   15.839260   -2.162900
  H     -8.508690   15.842830   -0.387150

----------------------------
CARTESIAN COORDINATES (A.U.)
----------------------------
  NO LB      ZA    FRAG     MASS         X           Y           Z
   0 S    16.0000    0    32.060    5.448062   -8.071474    0.797956
   1 C     6.0000    0    12.011    5.448062   -4.598535    0.797956
   2 C     6.0000    0    12.011    2.762855   -3.602234    0.381744
   3 O     8.0000    0    15.999    2.812612   -0.886584    0.391306
   4 C     6.0000    0    12.011    0.344440    0.117050    0.012019
   5 C     6.0000    0    12.011    0.488078    2.990756    0.036755
   6 O     8.0000    0    15.999   -1.980282    4.018881   -0.339433
   7 C     6.0000    0    12.011   -1.932585    6.710739   -0.327792
   8 C     6.0000    0    12.011   -4.607625    7.692111   -0.730946
   9 O     8.0000    0    15.999   -4.582907   10.388675   -0.722650
  10 C     6.0000    0    12.011   -7.056974   11.387849   -1.092885
  11 C     6.0000    0    12.011   -6.920763   14.261650   -1.066807
  12 O     8.0000    0    15.999   -9.391977   15.273409   -1.435682
  13 C     6.0000    0    12.011   -9.356280   17.967516   -1.428161
  14 C     6.0000    0    12.011  -12.033360   18.945204   -1.827686
  15 O     8.0000    0    15.999  -12.006073   21.641011   -1.825400
  16 C     6.0000    0    12.011  -14.480990   22.645552   -2.194388
  17 C     6.0000    0    12.011  -14.342209   25.521054   -2.179308
  18 O     8.0000    0    15.999  -16.809586   26.541808   -2.547880
  19 C     6.0000    0    12.011  -16.767445   29.226863   -2.547124
  20 H     1.0000    0     1.008    6.675628   -3.800806   -0.670702
  21 H     1.0000    0     1.008    6.173131   -3.800844    2.569461
  22 H     1.0000    0     1.008    1.495718   -4.248539    1.891106
  23 H     1.0000    0     1.008    2.013371   -4.246120   -1.441937
  24 H     1.0000    0     1.008   -0.932334   -0.532279    1.508814
  25 H     1.0000    0     1.008   -0.422618   -0.529142   -1.801174
  26 H     1.0000    0     1.008    1.762793    3.644942   -1.460739
  27 H     1.0000    0     1.008    1.256743    3.640954    1.848247
  28 H     1.0000    0     1.008   -0.692622    7.411185   -1.833148
  29 H     1.0000    0     1.008   -1.193494    7.406649    1.478560
  30 H     1.0000    0     1.008   -5.847814    6.988434    0.773276
  31 H     1.0000    0     1.008   -5.347509    6.993952   -2.536712
  32 H     1.0000    0     1.008   -8.325377   10.730300    0.408294
  33 H     1.0000    0     1.008   -7.827321   10.736668   -2.903243
  34 H     1.0000    0     1.008   -5.651113   14.917800   -2.567684
  35 H     1.0000    0     1.008   -6.148262   14.911451    0.743210
  36 H     1.0000    0     1.008   -8.118982   18.668775   -2.935538
  37 H     1.0000    0     1.008   -8.614109   18.666167    0.376226
  38 H     1.0000    0     1.008  -13.268769   18.243756   -0.318816
  39 H     1.0000    0     1.008  -12.775172   18.241791   -3.630428
  40 H     1.0000    0     1.008  -15.745746   21.993351   -0.687879
  41 H     1.0000    0     1.008  -15.254776   21.987171   -4.000607
  42 H     1.0000    0     1.008  -13.072842   26.168550   -3.684191
  43 H     1.0000    0     1.008  -13.564246   26.174918   -0.373051
  44 H     1.0000    0     1.008  -18.695760   29.907373   -2.834627
  45 H     1.0000    0     1.008  -15.580943   29.931864   -4.087289
  46 H     1.0000    0     1.008  -16.079094   29.938610   -0.731607

--------------------------------
INTERNAL COORDINATES (ANGSTROEM)
--------------------------------
 S      0   0   0     0.000000000000     0.00000000     0.00000000
 C      1   0   0     1.837800000000     0.00000000     0.00000000
 C      2   1   0     1.531525348599   110.13571683     0.00000000
 O      3   2   1     1.437310097404   109.06754189   179.95920407
 C      4   3   2     1.424166045130   110.82768954   180.07258795
 C      5   4   3     1.522654707476   108.99276253   179.98729990
 O      6   5   4     1.428911679741   109.47724243   180.06909102
 C      7   6   5     1.424706911649   111.33935622   179.96067414
 C      8   7   6     1.522841305882   108.89834050   180.09873655
 O      9   8   7     1.427026699155   109.39344807   179.99722785
 C     10   9   8     1.425485055130   111.22681600   180.05585928
 C     11  10   9     1.522519795898   109.01169932   179.98499971
 O     12  11  10     1.426485767227   109.28399656   180.02019398
 C     13  12  11     1.425790695754   111.27015980   180.07041480
 C     14  13  12     1.522914099941   109.08561816   180.00362299
 O     15  14  13     1.426633593920   109.27927340   180.08859029
 C     16  15  14     1.426863438771   111.29228297   180.00978416
 C     17  16  15     1.523442101460   109.09582929   180.07668535
 O     18  17  16     1.426398853617   109.47523522   179.98502376
 C     19  18  17     1.421045040419   111.36070773   180.00752582
 H      2   1   3     1.097356410652   112.62438118   238.92053331
 H      2   1   3     1.097359131780   112.62319066   121.06990726
 H      3   2   1     1.097519188944   110.78831679    60.38211188
 H      3   2   1     1.097596431982   110.78329896   299.52552364
 H      5   4   3     1.096326651414   110.27251103    59.47580011
 H      5   4   3     1.096509453037   110.27464988   300.49147749
 H      6   5   4     1.096731256279   109.86063275    59.22092188
 H      6   5   4     1.096700425139   109.83778529   300.90077515
 H      8   7   6     1.096588501308   110.20715719    59.56654581
 H      8   7   6     1.096489413583   110.23590299   300.64746990
 H      9   8   7     1.096803927464   109.80118929    59.13755980
 H      9   8   7     1.096769377900   109.81730647   300.87065870
 H     11  10   9     1.096656052644   110.17465962    59.38972818
 H     11  10   9     1.096669863997   110.17642802   300.58376732
 H     12  11  10     1.096709769356   109.79602521    59.16155416
 H     12  11  10     1.096707853578   109.79991837   300.87009864
 H     14  13  12     1.096668947085   110.13466754    59.37812093
 H     14  13  12     1.096653827468   110.13722904   300.63345132
 H     15  14  13     1.096681106886   109.78317169    59.22740679
 H     15  14  13     1.096681100548   109.78068200   300.94017188
 H     17  16  15     1.096628569480   110.08716089    59.43533780
 H     17  16  15     1.096640778469   110.09827571   300.71943982
 H     18  17  16     1.096714753480   109.74159889    59.08789382
 H     18  17  16     1.096728923390   109.74180757   300.90099174
 H     20  19  18     1.092740942813   108.34956064   180.00881105
 H     20  19  18     1.094376334814   110.46584799    61.10572113
 H     20  19  18     1.094324069963   110.46310584   298.90428772

---------------------------
INTERNAL COORDINATES (A.U.)
---------------------------
 S      0   0   0     0.000000000000     0.00000000     0.00000000
 C      1   0   0     3.472938688920     0.00000000     0.00000000
 C      2   1   0     2.894163476010   110.13571683     0.00000000
 O      3   2   1     2.716122453614   109.06754189   179.95920407
 C      4   3   2     2.691283794525   110.82768954   180.07258795
 C      5   4   3     2.877400393656   108.99276253   179.98729990
 O      6   5   4     2.700251744272   109.47724243   180.06909102
 C      7   6   5     2.692305884121   111.33935622   179.96067414
 C      8   7   6     2.877753013540   108.89834050   180.09873655
 O      9   8   7     2.696689647196   109.39344807   179.99722785
 C     10   9   8     2.693776362194   111.22681600   180.05585928
 C     11  10   9     2.877145447720   109.01169932   179.98499971
 O     12  11  10     2.695667433995   109.28399656   180.02019398
 C     13  12  11     2.694353939269   111.27015980   180.07041480
 C     14  13  12     2.877890574376   109.08561816   180.00362299
 O     15  14  13     2.695946785960   109.27927340   180.08859029
 C     16  15  14     2.696381129781   111.29228297   180.00978416
 C     17  16  15     2.878888352644   109.09582929   180.07668535
 O     18  17  16     2.695503191075   109.47523522   179.98502376
 C     19  18  17     2.685385950359   111.36070773   180.00752582
 H      2   1   3     2.073703087436   112.62438118   238.92053331
 H      2   1   3     2.073708229621   112.62319066   121.06990726
 H      3   2   1     2.074010693827   110.78831679    60.38211188
 H      3   2   1     2.074156662015   110.78329896   299.52552364
 H      5   4   3     2.071757124491   110.27251103    59.47580011
 H      5   4   3     2.072102569496   110.27464988   300.49147749
 H      6   5   4     2.072521716879   109.86063275    59.22092188
 H      6   5   4     2.072463454468   109.83778529   300.90077515
 H      8   7   6     2.072251949078   110.20715719    59.56654581
 H      8   7   6     2.072064700416   110.23590299   300.64746990
 H      9   8   7     2.072659045516   109.80118929    59.13755980
 H      9   8   7     2.072593756303   109.81730647   300.87065870
 H     11  10   9     2.072379602604   110.17465962    59.38972818
 H     11  10   9     2.072405702280   110.17642802   300.58376732
 H     12  11  10     2.072481112478   109.79602521    59.16155416
 H     12  11  10     2.072477492183   109.79991837   300.87009864
 H     14  13  12     2.072403969566   110.13466754    59.37812093
 H     14  13  12     2.072375397631   110.13722904   300.63345132
 H     15  14  13     2.072426948260   109.78317169    59.22740679
 H     15  14  13     2.072426936284   109.78068200   300.94017188
 H     17  16  15     2.072327666951   110.08716089    59.43533780
 H     17  16  15     2.072350738596   110.09827571   300.71943982
 H     18  17  16     2.072490531108   109.74159889    59.08789382
 H     18  17  16     2.072517308357   109.74180757   300.90099174
 H     20  19  18     2.064981117240   108.34956064   180.00881105
 H     20  19  18     2.068071560242   110.46584799    61.10572113
 H     20  19  18     2.067972793988   110.46310584   298.90428772

---------------------
BASIS SET INFORMATION
---------------------
There are 4 groups of distinct atoms

 Group   1 Type S   : 17s11p1d contracted to 5s4p1d pattern {66311/6311/1}
 Group   2 Type C   : 11s5p1d contracted to 4s3p1d pattern {6311/311/1}
 Group   3 Type O   : 11s5p1d contracted to 4s3p1d pattern {6311/311/1}
 Group   4 Type H   : 4s1p contracted to 2s1p pattern {31/1}

Atom   0S    basis set group =>   1
Atom   1C    basis set group =>   2
Atom   2C    basis set group =>   2
Atom   3O    basis set group =>   3
Atom   4C    basis set group =>   2
Atom   5C    basis set group =>   2
Atom   6O    basis set group =>   3
Atom   7C    basis set group =>   2
Atom   8C    basis set group =>   2
Atom   9O    basis set group =>   3
Atom  10C    basis set group =>   2
Atom  11C    basis set group =>   2
Atom  12O    basis set group =>   3
Atom  13C    basis set group =>   2
Atom  14C    basis set group =>   2
Atom  15O    basis set group =>   3
Atom  16C    basis set group =>   2
Atom  17C    basis set group =>   2
Atom  18O    basis set group =>   3
Atom  19C    basis set group =>   2
Atom  20H    basis set group =>   4
Atom  21H    basis set group =>   4
Atom  22H    basis set group =>   4
Atom  23H    basis set group =>   4
Atom  24H    basis set group =>   4
Atom  25H    basis set group =>   4
Atom  26H    basis set group =>   4
Atom  27H    basis set group =>   4
Atom  28H    basis set group =>   4
Atom  29H    basis set group =>   4
Atom  30H    basis set group =>   4
Atom  31H    basis set group =>   4
Atom  32H    basis set group =>   4
Atom  33H    basis set group =>   4
Atom  34H    basis set group =>   4
Atom  35H    basis set group =>   4
Atom  36H    basis set group =>   4
Atom  37H    basis set group =>   4
Atom  38H    basis set group =>   4
Atom  39H    basis set group =>   4
Atom  40H    basis set group =>   4
Atom  41H    basis set group =>   4
Atom  42H    basis set group =>   4
Atom  43H    basis set group =>   4
Atom  44H    basis set group =>   4
Atom  45H    basis set group =>   4
Atom  46H    basis set group =>   4
[file orca_main/mainfcts.cpp, line 334]: Error : multiplicity (1) is odd and number of electrons (169) is odd -> impossible

